192
Lattice="25.24593 0.0 0.0 -1e-06 25.24593 0.0 -1e-06 -1e-06 25.24593" Properties=species:S:1:pos:R:3:REF_forces:R:3 REF_energy=8335.371685893568 pbc="T T T"
O       12.18950000       0.10654900       5.11497000      -0.22790748      -4.19267361       1.88640474
H       14.20840000       0.76479100       4.43777000       2.75466543       2.79130971      -3.93016192
H       11.21940000       1.67045000       4.62527000       3.54942931      -2.24674827       1.47228261
O       23.33080000       0.41105700      15.71860000      -3.34983124      -1.73504661      -1.44365794
H       23.41670000       1.60186000      14.43850000      -0.43456878       4.50176097      -0.05904946
H       21.55490000       0.37653500      16.02540000      -0.21563323       0.16361332       0.22124921
O       12.91340000      22.23020000      19.42970000       4.21314154       5.95816599      -0.57131505
H       12.95150000      20.97980000      18.37410000      -1.94703040      -3.10906971      -2.77630856
H       14.77230000      22.06730000      19.87100000       3.83890091       2.62619476      -2.54320496
O       24.29490000      11.92750000      22.83490000       1.73986771      -4.87992452      -1.15282393
H       24.14490000      10.96400000      -0.85727200      -4.72791860      -0.72849653       0.81918997
H       22.60780000      11.58730000      22.00270000       2.71329252       4.82146289      -1.18079131
O       15.99210000      11.95870000      24.66520000      -0.78401271       0.04601981       6.65219398
H       15.30230000      10.87950000      23.44390000      -0.36706789      -2.82102450      -2.52403375
H       15.15430000      13.24840000      24.28830000      -0.18666240      -0.16908840      -4.29973994
O        5.04387000      13.81340000       2.58676000       1.15087112      -3.34496740       1.47936071
H        5.71300000      12.77630000       1.16412000      -0.13571762      -3.75350970      -1.71931546
H        3.77701000      12.71890000       3.17598000       2.95384741       1.94777945      -2.39618721
O       22.44140000      17.53750000      20.53030000       4.59679983      -1.33752484       2.36276888
H       23.42140000      17.08590000      22.14810000      -5.20869718      -2.28524660       0.21865180
H       23.63930000      18.50560000      19.34540000       0.88701046       3.54740406       1.45896632
O        4.06693000       8.80638000       9.48071000       5.17800935      -1.80377431      -0.85444102
H        3.30317000       8.25478000      11.18170000       2.29039983      -2.02210783       3.35581575
H        4.67693000       7.22427000       8.67815000      -2.63118135       0.51493439       0.98881180
O        4.74511000      14.26260000       8.72037000       5.29440747       1.00914240       1.64257271
H        6.45192000      14.90810000       7.52058000      -5.51172704       0.23771341      -1.02618272
H        4.47331000      12.69790000       9.44435000      -4.21560609       1.38050587       1.81369792
O       10.90530000       6.77706000      20.19730000       1.64127699      -6.28231555      -0.63965630
H       10.28950000       6.76116000      21.75630000      -1.94657766      -3.73646948       2.19563638
H        9.60222000       7.34334000      19.17240000       3.80246892       1.90252454       2.82617466
O        3.79272000       6.06344000      14.51600000      -1.70039642      -0.85979932      -4.11477729
H        3.88547000       4.64864000      13.87690000      -4.25005157      -0.30675552      -2.02726712
H        2.45906000       5.88292000      15.40570000      -0.13880422       0.02002357       0.35036232
O       16.20180000      11.12420000       9.21497000      -0.06414839      -2.06040643       4.10673460
H       15.79270000      11.72600000       7.36506000      -3.05206002      -3.83616554       0.58120720
H       17.97960000      10.74310000       9.64445000      -2.32292394       1.80002478       3.82814588
O       11.55010000      20.17440000       3.01857000       3.87828752       3.06010843      -2.14463203
H       12.00110000      21.65760000       3.79706000       4.07978845      -0.47082471      -2.52894983
H        9.62308000      20.56380000       2.37583000       2.83790067       0.71999805      -2.53337554
O       23.91680000      20.36100000       0.19077100      -0.91165007      -5.18447769       0.92468435
H       -0.22220000      21.80000000      -0.22626200      -1.03037622      -1.34714086      -3.68924196
H       23.45770000      19.23280000      24.05130000       0.00765489       1.45511504      -2.00372585
O        9.57989000       1.69302000      22.05670000       3.77779794      -0.85643875      -2.29061450
H       10.14830000       3.08597000      21.22980000      -1.40860237       5.69256888       0.23285611
H        9.85572000       0.05475500      21.07800000      -0.28390697      -0.87283304      -4.63454113
O        0.92375200       1.00673000       5.96401000      -1.93605305       2.94088078       4.41616396
H        1.99304000       0.01433800       5.13917000      -4.08519449       1.25723711       0.71052324
H        0.35483000       1.83084000       4.89927000      -0.50264853       3.71609643       0.54339532
O        2.30196000       7.71108000      23.78680000       2.94052839       2.07843018       4.95031310
H        2.10292000       9.25208000      23.68370000       2.01808734       4.07208711      -3.02233118
H        2.01319000       7.47478000       0.50864800      -3.96623564      -2.61526744      -0.37901660
O       18.41680000       1.94267000      21.15000000       0.39286114       1.62540103      -4.46270764
H       17.24100000       0.58913400      21.44050000       0.23918948       0.13064745      -0.11857271
H       18.35700000       2.32286000      18.74860000      -2.10443062      -2.59374358      -1.44112851
O        8.95978000       9.27680000       4.48311000      -4.01784742      -0.56881017      -3.38866970
H        8.75811000      10.92610000       5.22931000       1.16365552       1.14519622      -3.55280319
H        7.72308000       9.48513000       3.59500000       1.80109117       0.91765977       3.75782081
O        7.15635000       0.73628800      14.88320000       0.08162927       3.71250792       1.76604084
H        8.76974000       1.18478000      14.69890000       0.54728837      -2.37051156      -4.12073069
H        6.20949000       0.90747800      16.40790000       3.75797502       2.57084417       2.94731528
O       16.19570000      20.73520000      11.25660000       3.54225482       2.17858872      -2.98558877
H       15.83820000      19.22540000      12.00530000      -0.66800337       1.34477044      -4.77950877
H       14.97650000      21.25160000      10.56920000      -0.10444319      -0.05744667      -0.55396532
O        0.46268900      10.41700000      13.03920000       0.60578644      -4.84942541       4.15055640
H       24.13000000      10.54240000      11.96080000       0.12833028       0.12436358      -0.06100975
H       24.75390000      10.53600000      14.62130000       1.76167834       0.68893513       4.45500481
O        9.20613000      19.39170000      16.47170000       3.06375957       3.06349348       1.16175446
H        8.46691000      21.06790000      16.21630000       2.42739142      -0.15021077      -0.91916719
H        7.94377000      18.24590000      15.67500000       0.16545311       0.02565631       0.25968048
O        6.97243000       4.28926000       7.19869000      -3.02918661      -1.19247076      -4.44553152
H        7.13214000       4.38875000       5.42563000      -0.11836157       0.08599833      -0.00892895
H        5.26688000       3.52330000       7.35286000      -3.28363221      -1.54488353       2.52537275
O       18.45250000       2.98532000      15.96320000       1.95511753      -6.52081538       1.62692701
H       19.64350000       4.44171000      16.59440000       0.10889479      -3.61453926       3.02245615
H       17.80480000       2.75518000      14.32470000      -0.07681083       4.58994786       0.75128085
O        7.40536000       4.11176000       1.27380000      -2.05164374      -0.83510463       4.07310427
H        7.06985000       3.21523000      -1.07790000      -2.00809038       3.47392721       2.62619010
H        5.87469000       4.46809000       2.27256000       3.66033300       1.44930275       1.53569550
O        0.59903300       9.48731000       5.13593000      -0.26762147       3.88784861      -3.91916439
H       -0.84514800      10.64100000       4.67759000       0.28601525      -0.14228462      -0.35837934
H        2.24677000      10.12780000       5.87229000      -0.25511526      -0.21936513      -0.33500291
O       10.11820000      20.20650000       9.56988000       0.11959748       4.58786437      -1.58334161
H        9.78981000      20.80270000       7.85866000      -2.90969794       3.29916997      -3.78334630
H       10.48960000      21.73180000      10.17700000       2.76034110       1.74112643       4.60690707
O       19.82660000       9.36563000      15.36270000       4.42251768      -3.29437969       2.76843592
H       18.68580000       9.73935000      13.99210000       0.26534385      -0.47619791      -0.08294007
H       18.97730000       9.67673000      16.82570000       0.60011989       0.96538400      -5.31365743
O        0.11804400       5.03885000      18.91410000       0.28220449       2.70995964       2.64375833
H        0.90271100       6.12432000      20.16020000      -1.31329646       3.90225485       1.17630998
H       25.08810000       3.74960000      20.07740000       3.49478942       1.48534793       1.69746753
O       15.52680000       6.33523000      23.20680000      -0.83031532       3.16399869      -0.62041976
H       14.22270000       6.83440000      22.49980000       0.20208177       0.55596862      -2.77950277
H       15.87610000       4.90684000      22.10110000      -0.64757809      -2.00885808       3.89129242
O       19.89630000      10.18980000      20.82330000      -0.40170008       3.36131467      -3.32201966
H       19.45300000       8.21801000      21.17870000      -3.05644065      -3.40839045       0.80151464
H       18.51630000      10.80840000      22.15970000      -2.47407026       1.10314500       2.37412299
O       17.87840000      15.31110000      15.14890000       0.47519546      -0.06351211      -0.11485493
H       18.77580000      14.48750000      16.53790000       4.05882675      -0.99954639       1.22578422
H       15.84010000      15.61320000      15.94270000      -0.92064308       1.09035047      -3.47146725
O        4.60544000      24.27760000      22.56190000       2.82863749       3.91449721      -0.12816560
H        5.69319000       0.01823800      23.61980000       0.32615248       3.43663944      -3.70698233
H        4.65792000      22.88900000      23.73220000      -2.22779199       3.45536263      -1.08367930
O        7.73856000       9.79246000      23.89530000       0.76095422      -5.91494092       0.04196610
H        6.76902000       8.17413000      23.86390000      -3.71593126       0.87772287       2.45012671
H        7.49662000      10.26670000      22.23830000      -0.28792644      -2.36376312       3.90796378
O        5.73798000      19.08760000      11.88520000      -1.03370009      -0.37209219       6.85570900
H        7.23134000      18.90210000      10.92510000       0.11318609       3.09379948      -4.06959509
H        4.59553000      17.66410000      11.01700000       0.03270092       0.38650763      -1.73836141
O       17.62710000      13.96330000       4.02014000       1.91860176      -1.25388410       3.28431671
H       18.05550000      15.77390000       4.55832000       2.35319019       1.99987762      -2.57096389
H       17.16090000      13.46680000       2.22674000       0.41228441       0.62647757       0.07031938
O       22.68050000      14.17530000       3.41504000      -4.09612670      -0.95619444      -0.97200793
H       21.20270000      13.55210000       3.47922000       1.71634473      -1.08279113       3.34490791
H       22.63200000      15.50020000       1.51976000      -0.24246477      -0.54617583      -0.21176429
O       17.02440000       6.25156000       7.35802000      -4.13073859       4.44447840       2.61021225
H       16.63100000       7.76449000       7.41169000       1.55272147       4.55279701      -2.24678605
H       16.88910000       5.92892000       5.59476000       0.44511830      -3.58370784      -1.89025615
O       22.57810000      22.08270000       8.50952000       5.68405043       2.08420939       0.53845078
H       23.78310000      23.03930000       7.44333000      -3.55025572      -3.01555081       1.68115817
H       20.89220000      22.75570000       8.77033000       3.43086893      -3.19713572      -2.50184363
O       17.85380000      21.41330000      21.78500000      -2.24311410      -1.55951560      -2.77139759
H       17.81330000      19.65100000      20.98460000       1.57385381      -2.30585397      -3.26488083
H       13.68740000      19.52740000      24.39300000      -2.44226441       3.54697001      -4.40648869
O        8.58125000      17.07230000      21.60010000       0.08159958      -2.29038260       2.40644144
H        9.10386000      18.26940000      20.55160000      -0.74154395       5.92675297      -0.38576320
H        7.07569000      16.17080000      21.34260000      -0.04181692       0.01375156       0.31189299
O        0.79319200      13.71040000      17.65080000       0.86186129       2.29317640      -3.61806384
H        0.72430900      13.50250000      15.76990000      -3.03087557       4.71884212      -1.31037467
H        0.04029500      12.24790000      18.41420000      -3.17944437       0.58157162      -1.11990853
O       23.35680000      18.41510000      12.61690000      -3.91126397      -1.98628488       0.92946000
H       24.66540000      20.66130000      10.49280000      -1.86201614      -0.18347269       5.11932717
H       22.49770000      19.08130000      14.05530000       1.41948568       4.31723735       2.29980386
O       11.71250000       8.25084000      12.28690000       4.81220135      -1.85336767       4.83445054
H       10.90640000       7.01205000      11.16000000      -1.87635657      -0.96022196      -4.18877352
H       12.52040000       9.06489000      11.15220000       5.10152121       1.35071521      -1.05878851
O        5.96572000      12.88080000      19.42820000       4.90468007      -3.94416334      -1.49956173
H        7.09322000      13.75070000      18.52820000       2.23240406       2.55133306       1.47413588
H        4.41197000      13.04310000      19.01470000       1.88711596       1.10243916      -1.56237360
O       13.85920000      17.55960000      23.96020000      -0.05752603      -0.01246473       0.38306416
H       12.21550000      17.50840000      23.21070000       0.38097480      -5.34168162      -2.46189932
H       14.07590000      17.47270000       0.54219000      -4.65367921      -0.59131921       3.12528459
O        6.15520000      19.51640000       0.50115400       1.92159605       5.41421384       1.67825814
H        5.04338000      18.14940000       0.71129700       1.42129874      -3.65852825      -1.96892652
H        7.09205000      19.02230000      24.37490000      -0.26648727       0.20932629      -0.15854730
O        8.42602000       8.72537000      16.41350000      -4.84311837      -3.72343484       0.55639205
H        9.80907000       9.05943000      15.05530000      -2.71002447      -2.39178821      -1.43207378
H        7.08558000       7.52688000      15.60560000       0.01543785       0.15917639      -0.06441311
O       22.22840000       5.66879000       0.13173700       1.96329582       4.07561352       2.15402154
H       21.94580000       4.83910000       1.78702000      -0.79729941      -3.39317894       0.58605319
H       21.34810000       4.86578000      23.98090000      -0.80384738       1.47307572      -4.20858921
O        9.79018000       1.53373000      11.08680000       2.24058823      -1.91859784      -3.73837367
H       10.10590000       1.93991000       8.91394000       0.85607093      -3.53303822      -2.62597008
H       11.41440000       2.23665000      11.83210000      -4.88880607       1.89941175      -2.62197153
O       15.23630000       3.38955000      11.68820000       1.69710442      -4.69919184       4.50850526
H       14.65920000       5.12150000      12.19880000      -0.03679444      -0.34937577       0.39364872
H       15.43490000       3.68841000      10.08010000       2.00786754       2.70672052       3.07030883
O       18.42950000       0.78652800       3.87563000       5.30213662      -5.11389820       1.45638661
H       19.12620000      24.52460000       3.39072000      -2.40330456       0.82012927       4.46685026
H       19.22810000       1.29508000       5.21674000      -2.72097962       0.92191891      -3.51126439
O       20.93290000      13.20820000      10.28570000       0.00752404      -0.07937313       0.40009027
H       20.20510000      14.18950000       9.29470000       1.12715804       4.96588282       1.79809907
H       22.18320000      13.95140000      11.19120000      -3.54183356       1.56400730      -2.91081002
O       21.84110000       4.79078000       5.50151000       3.94073579       1.47482052       5.37949518
H       20.29170000       5.34957000       6.17707000      -1.07898715      -4.30070369       2.21772192
H       22.58850000       6.18738000       5.17936000      -3.52527141      -0.51906714      -1.86076784
O       10.92520000      14.87980000       5.41855000      -0.16660329       1.68328196       3.88584312
H       11.50820000      15.47600000       3.62793000      -0.63143067       4.17408065       1.91350441
H       12.08610000      15.67860000       6.32679000      -2.71468931       0.31238862       3.77563529
O       13.24500000       5.81399000       3.25365000      -3.07534768      -0.09534527       2.25405577
H       13.04710000       7.64709000       3.13716000       3.98312570      -0.40653884       0.89243856
H       13.41410000       5.01199000       1.66153000       2.50016213       0.79363930      -0.85187997
O       10.62200000      14.84980000      10.91570000       1.61645240      -2.89898103       3.63083545
H       10.58690000      16.65080000      11.20590000       0.19417407      -4.27509228      -3.58598494
H        8.88128000      14.57560000      11.21690000      -0.85377832      -4.51200365       2.32672949
O       19.45330000      25.10520000      10.57320000       3.50913084       1.46663102       4.44188370
H       20.92430000      -1.09909000      11.20080000      -4.82760662       2.38618989      -2.87722278
H       18.08070000      24.42740000      11.63810000      -2.82371182      -2.77234869      -1.81056955
O        0.92320500       1.27898000       0.06438700       4.54421512      -3.34416143       0.99890869
H        1.72192000       0.74992900      23.96910000      -3.95223517      -1.78060804       0.30620005
H       -0.70259500       2.59095000       0.37461600      -0.40910841      -0.02181980      -0.93486965
O        1.14162000      21.85590000      19.33320000      -0.36749839      -1.47986647       2.55672401
H        2.00848000      22.23610000      20.93130000       0.48157934       0.26955224      -4.85344004
H       -0.40746800      22.82430000      19.96890000      -4.80443174       0.87088376      -3.42733733
O       19.54870000      19.30270000       3.77530000      -1.85745606      -2.41140299      -3.62291777
H       21.64650000      19.22020000       2.93124000      -4.77692919      -0.15221458       0.88744497
H       20.18840000      19.56450000       5.42732000      -1.71017543       4.14148135      -0.52548214
O        5.44670000      23.57900000       4.07394000       5.43560943      -1.37012739      -2.15512215
H        6.69299000       0.31064800       3.20861000      -0.09668552      -0.03265868       1.07143282
H        5.26105000      22.08890000       2.75677000      -1.86494651      -2.93170123      -3.37494425
O       12.80430000      13.85040000      15.72620000      -0.36432902      -6.27097885       2.32090933
H       12.01800000      15.15160000      16.71070000      -1.59383564      -1.06959798       3.51584969
H       12.83850000      14.86150000      14.32130000      -2.20079009      -3.72022447      -0.10582121
192
Lattice="22.7394 0.0 0.0 -1e-06 22.7394 0.0 -1e-06 -1e-06 22.7394" Properties=species:S:1:pos:R:3:REF_forces:R:3 REF_energy=8328.136990419129 pbc="T T T"
O        6.34971000      12.59730000      16.40550000       4.08557748      -1.21642631      -4.22189079
H        5.07420000      13.86710000      16.43360000      -3.04170407       1.82595136      -2.64990243
H        6.06085000      11.84480000      17.99810000       1.86435378      -1.42751258      -3.26739952
O       17.89890000       6.24452000       0.63586100      -3.40679575      -1.85403038       2.39975714
H       18.32610000       8.05189000       0.93311800      -0.45418782       0.56259107       0.44307466
H       16.65700000       5.73765000       1.91916000       1.95525935      -4.34174592      -2.12148215
O        4.01719000      22.84850000       7.91261000       2.58298444       2.33912920      -3.57752801
H        4.37346000      22.02410000       6.24260000      -1.50214976      -3.62003733       0.46016136
H        5.51670000      22.40890000       8.93974000       1.89873847       4.45351354       1.42558263
O        5.00031000      17.78000000      22.39500000      -4.63742237      -1.51093996      -1.33954971
H        4.32126000      15.93960000      22.55330000      -3.90984573      -1.37042413      -0.96174360
H        6.79964000      16.87920000      21.27180000       0.81118402       1.06793122      -4.37129210
O        7.86850000       8.04333000      14.17020000       4.52094239       1.83662195       2.24882654
H        7.81590000       7.76404000      12.23780000      -2.81732151       2.25571878       0.06409990
H        7.41581000      10.00020000      14.50970000       0.92994920       0.70816945       4.99001438
O        1.51243000       4.41388000       8.52358000      -1.35755130      -1.67871915       3.56602495
H        2.77178000       5.72725000       8.25681000       0.08293692       0.51362067       0.24187123
H        2.53002000       2.99899000       8.72454000      -0.19634661      -0.31727284      -0.13874114
O        5.88735000      13.37880000       3.31765000       1.35722245      -4.50432432      -1.65813983
H        4.43661000      14.21200000       2.79089000      -4.34435296      -0.77075647      -0.67252924
H        6.64947000      14.44900000       4.56061000       3.56440199      -2.62677347       0.23000146
O       11.58150000       7.42399000       2.86096000       2.97206141      -2.14746980       3.73905254
H       10.14430000       6.90867000       1.86847000      -3.01603353       1.09215521       4.10683989
H       11.29410000       8.96893000       4.03784000       1.86767628       2.04796255      -0.96019948
O       11.63540000      14.30720000      18.38790000       4.21534653       0.74047012       0.56301279
H       13.07780000      14.86810000      19.05670000       0.38460403      -3.16027470       2.08448715
H       12.12610000      12.57260000      17.81670000      -2.34567866      -3.28396092       0.64875734
O       18.21830000      20.02400000       9.83660000       1.40469746       2.12546464       3.64909198
H       19.84490000      20.67860000       9.91007000      -1.11960920       1.06030013      -0.48697753
H       17.93710000      19.51810000       8.05293000       0.80003472       1.88463611       2.91504067
O       13.01300000       4.21344000       8.57353000      -1.96282949       4.14221100       2.22292000
H       10.75970000       4.84890000       7.96174000      -1.26829289       1.93969408       3.27510342
H       12.56270000       4.33854000      10.39890000       3.83696934       1.93832397      -2.46438551
O       22.39350000       9.74132000       1.47936000       0.16293301       0.02045724      -0.45080463
H       23.60560000       8.26474000       1.85891000       1.82101402       0.30675173      -4.05217974
H       22.68210000      10.94400000       4.12760000      -3.32715080      -0.31633553      -2.99288185
O       18.13690000      14.61770000       7.64260000      -0.88066530       4.53995904       0.83255492
H       19.24510000      15.53490000       6.55419000      -0.71068186      -0.65838013       4.42220776
H       18.92870000      14.35500000       9.19638000       1.34768096       4.15078099       0.07484940
O        3.19053000      -0.03820100      16.70260000       0.29902877      -2.27069127       1.52584706
H        2.73372000      -0.60531400      18.13110000       1.48206469       3.38008853      -0.11839558
H        3.74403000       1.61347000      16.99760000      -0.84798626      -2.69193249      -0.42646192
O        6.43778000      10.29560000      20.50990000      -0.77315839      -2.82544744      -3.09949586
H        6.89259000       8.67527000      21.09790000      -0.04011269       1.07038789       4.61828647
H        6.08877000      11.22100000      21.96920000      -1.73158625       0.72829269      -0.81108202
O        1.22760000      12.64420000      10.28860000       2.31116666      -3.58389491      -4.54564637
H        0.42924800      11.82920000      11.76640000       1.56519646       2.01304547      -3.52627852
H        1.03780000      14.49350000      10.67280000      -4.97102042       0.31040620      -0.45805809
O        6.24579000      15.07040000      11.40540000      -0.64906719      -4.00369128       2.09356816
H        6.51545000      14.65210000      13.08730000       0.99636570       0.67193952       0.37599884
H        5.76577000      13.54330000      10.79070000      -2.90278587       2.88256468      -2.43269266
O       13.26320000      16.92600000       7.33223000       1.06643162      -3.15158818      -3.17225099
H       14.79770000      16.04820000       7.55411000       4.64463027      -2.98259811      -2.00408069
H       13.37610000      18.65760000       7.33438000      -1.68062170       4.37902487       0.13930028
O       19.39650000      18.25010000      15.42300000       3.78032791      -0.45793770       2.00399790
H       20.56590000      19.40510000      15.25870000       1.07432631      -0.41899867      -3.84278058
H       19.61010000      17.81900000      17.12880000      -1.41031198      -0.36322963      -0.55846686
O        7.56173000      18.21090000       4.72550000       4.83397832      -0.83930249       0.19937972
H        6.71726000      18.47850000       0.14777900       0.30136140      -0.81649339       0.15915874
H        8.89681000      19.30800000       4.88697000       2.73043959       2.86071688       1.36456055
O        6.98474000      19.45060000       8.90487000       0.80863121      -3.83448755       1.70150040
H        6.86628000      18.49010000       7.12109000       0.45536970       3.91850518      -2.40631673
H        6.35624000      18.36600000      10.11960000      -0.01529679       0.39836987      -4.21308557
O        0.03750800      12.51090000       5.52375000       5.42302364      -2.67513432      -1.77374499
H        0.24728300      14.13050000       4.87537000       2.80740049       2.94726141       3.70160059
H        0.58976100      12.32100000       7.24169000      -3.81301949      -0.38459732       0.97993480
O       13.16730000      14.16990000      13.63750000      -4.06762006      -2.34996844      -0.41297826
H       13.51130000      15.86780000      13.05880000       0.02770554       0.79986822      -2.96983699
H       12.03430000      14.40180000      15.19740000       0.84101112       3.57404297       2.12574487
O       15.09850000      18.07840000      17.77130000      -2.53988230      -1.79263962       4.41838263
H       14.85030000      18.60510000      15.97700000       5.31059672       1.41279628       1.33257670
H       16.79950000      18.46020000      17.88880000      -3.34913987       3.04963832      -0.04494602
O        0.01677200      20.92720000      13.66600000       1.33000636      -3.07353176      -1.89401091
H       -1.04343000      22.37940000      13.96250000      -0.28816060       0.16368084      -0.11430206
H        1.73217000      21.60070000      14.19400000       1.65486354       0.72706659      -3.71135550
O       11.67260000      11.64030000       5.76230000      -0.25599889       1.65739698      -5.37378656
H       12.86920000       0.33246500      -2.62071000      -2.15443778       2.68626517       3.50380337
H       12.26640000      12.87650000       6.95447000       1.00862386       5.19050313      -1.36841488
O       17.14250000      10.56030000       6.87281000       1.53132380      -1.88162603       3.39850041
H       18.25950000       9.15542000       6.31813000      -0.87051297       4.33099822       2.12336023
H       17.53690000      12.06700000       6.45707000       0.32420639       4.01267255       1.60461257
O        2.19112000      21.34120000      21.31110000       3.73455154      -1.03307390       0.30247066
H        0.51215000      21.47410000      22.05440000      -2.25078595       2.89261894      -1.50677146
H        3.42644000      20.61830000      22.84500000       3.51988086       2.38643662      -0.16728743
O       13.76820000       9.82347000      12.26570000       1.95096217      -2.87530658      -3.61502242
H       13.54400000       9.13025000      10.52080000      -1.30474192      -0.38932941      -4.32015390
H       12.77220000      11.36260000      12.20750000      -3.76539666      -2.40468040       2.45481576
O        6.62545000       1.12436000       4.14555000       0.17056134      -5.38087172      -3.63462869
H        8.38095000       0.84979000       3.45550000      -1.65886578       4.99991389      -0.73972008
H        5.93107000       2.18889000       2.98112000       5.03175372       0.19612694      -2.05662797