192
Lattice="22.4922 0.0 0.0 -1e-06 22.4922 0.0 -1e-06 -1e-06 22.4922" Properties=species:S:1:pos:R:3:REF_forces:R:3 REF_energy=8308.777835314304 pbc="T T T"
O       10.85070000      17.98420000       0.99447200      -1.92996767       3.98702607      -1.45515625
H       11.26420000      18.41180000      -0.75078600       0.97224491      -0.60935881       4.24241435
H       11.55590000      16.50750000       1.66738000       0.68735583      -2.08718142      -2.81390765
O       21.00580000       3.60178000       7.27777000       2.55255891      -4.52700247       0.49051698
H       22.80500000       4.05516000       7.48973000      -2.92266689       1.32408266       3.06873207
H       20.92680000       1.86170000       6.80847000      -3.51496102      -0.33123696       2.42591885
O       17.34180000      -0.10399000      19.38120000       0.57329992      -1.64221988      -4.59659686
H       16.37160000       0.86054800      20.50560000      -0.10055327      -1.77511833      -1.16922722
H       17.44370000       1.11361000      18.08020000       3.69426578       3.80273520      -1.18023995
O       12.60730000      16.37100000       8.80096000      -4.32809540       1.08879668       2.96137523
H       12.66160000      14.64610000       9.83384000       0.10096878       0.21930145      -0.12222047
H       13.05670000      17.52890000      10.19180000       0.19653899       0.34036266      -0.15443642
O       17.37040000      11.69620000      13.76440000      -0.89375340       2.12694694      -3.03770182
H       17.33850000      13.76380000      13.76720000      -1.26607668      -4.07244550      -0.38944817
H       15.96120000      10.80750000      14.67370000      -0.86388254      -2.85985172       2.51896741
O        3.53653000      14.37380000       8.70985000      -6.06553517      -2.09254867      -0.67770042
H        2.65334000      15.35400000       7.45314000      -0.53394607      -0.54449428       4.42317533
H        4.59275000      13.29780000       7.95141000       4.78771914       2.88625082       1.76327260
O       14.26780000      20.13970000      14.83770000       0.12396436      -3.80957120      -3.10622091
H       13.86880000      22.09170000      14.95090000      -0.98232589       0.72871795       4.70578422
H       13.04130000      19.55510000      13.52210000      -2.48021225       4.61984115       1.84494701
O        0.75054700      11.58960000      19.27790000       2.74077927       1.13609493       4.60518697
H       -1.03325000      11.78510000      19.10400000       0.70554031       3.86261919       1.70706119
H        1.16515000      12.43730000      20.94170000       2.18283980      -3.78365699       3.36401317
O       13.61140000      22.10090000       2.74679000       0.92482628       1.84645191      -5.11563891
H       13.25030000      20.27270000       2.53981000      -0.69296167       3.81691886      -1.43011971
H       14.74950000      22.79990000       1.33223000      -4.23043680       0.29832551       0.73035698
O       10.57240000      13.00030000      13.60650000       4.02482342      -0.66350449      -0.52381175
H       10.76150000      12.58300000      15.42610000      -3.36968623       2.75604328      -0.73837747
H        8.73723000      13.15160000      13.09810000       0.20364519       0.25612635      -0.21082336
O        2.39703000      12.23290000       0.93808400      -0.37915013       2.88559677      -2.84369685
H        1.27654000      11.27000000       2.04257000      -0.49158541      -0.40321330       3.97327648
H        3.10668000      13.56920000       1.73744000      -3.08458386      -1.46785618      -1.47900915
O        9.47188000      18.39470000      17.46820000       3.95846644      -0.81131279       0.51286222
H        9.75234000      19.03410000      15.78320000      -0.40612109      -0.07294117      -0.00983374
H        7.97884000      18.98170000      18.06280000      -0.23322459      -3.33989215      -3.37895536
O       18.17960000       2.29526000      15.48320000      -1.20205151       0.42362146      -5.23165149
H       19.06910000       0.81519700      14.98570000       0.93353058       3.59079713       2.16328010
H       19.22170000       3.67671000      14.61190000      -3.67590272       1.24093646       3.53194667
O        6.94041000      11.33410000       6.50003000       4.12706921      -0.05357376       1.12530672
H        8.46860000      10.91970000       7.52382000      -0.21574189       1.84018230      -2.29411982
H        6.08913000       9.72349000       6.22365000       0.24228742      -2.61047612       0.40981797
O        9.51980000      19.60440000      12.37460000      -1.85883417       3.63230651      -2.25808738
H        9.38218000      21.32090000      11.79020000      -1.41796234       3.42705831       3.22659981
H        8.42520000      18.29220000      11.88270000      -0.15760174      -0.24247270       0.06361134
O       18.40960000      14.21470000       2.62826000      -4.07688896      -0.69458970      -2.25449438
H       19.57220000      15.35740000       3.54124000       1.28103940      -0.83704091      -1.11822456
H       17.99060000      15.07130000       0.99857400      -2.73332675      -2.02089374      -2.87842834
O        7.14334000      19.15860000       3.18180000      -3.43052114      -2.94841625      -2.04841085
H        7.22884000      20.64050000       4.40982000       1.18637709      -1.25994412       4.41558253
H        8.44510000      19.30880000       1.81103000      -4.30993423      -0.39694065      -1.84976266
O       14.42240000      10.18350000       4.90607000      -2.93469757      -0.28863079      -5.18958842
H       13.12880000       8.65807000       5.76300000      -0.41954104      -1.39395949       2.80539962
H       13.60830000      10.43090000       2.45500000       3.25025778      -2.97889461       0.38924648
O        6.56493000       2.61814000      19.93090000       2.05613875      -1.94736478       2.74736561
H        6.13988000       0.89732900      20.53030000       0.81474227      -2.39128108       1.67046953
H        5.48909000       3.86349000      20.79980000       3.93108648      -2.73140207       0.40370902
O       15.10470000       7.08005000      16.05740000       3.31452011       2.54627559      -1.50178470
H       11.69400000       6.42383000      21.89840000      -0.89173520      -0.48331096      -3.58506549
H       15.22730000       5.27520000      15.70210000       1.41019294       3.61585442       1.75829809
O        8.91450000       3.91544000      13.55190000       4.82601715      -0.13461501      -2.35301559
H        8.65896000       5.89594000      14.09560000       2.67616584      -0.67850773       3.81588630
H        8.71449000       2.71009000      15.15540000       0.05687697       0.05196755      -0.04102381
O       15.97900000      15.94920000      14.80170000      -2.56840000       0.09254691       3.36421620
H       14.93470000      15.08720000      15.98020000      -1.99768815      -0.01150775       2.36162036
H       16.38780000      17.76450000      15.21150000      -3.63588928       1.51610655      -2.81546264
O        3.93967000       6.89167000      13.62320000       2.15288414       1.98426675       0.36403537
H        5.32134000       8.15595000      14.01800000       0.79348959       0.25296101      -0.03885566
H        2.46372000       7.55525000      14.66890000      -2.67211581       1.00656829       3.87372734
O       15.60710000       3.38258000       0.08720100      -2.44756677      -2.84636576       3.19897676
H       17.25070000       4.10016000       0.49447300       4.37794087       0.36713857      -0.65281370
H       14.40960000       4.07746000       1.29650000      -3.01931459       3.21416642      -1.14895856
O       15.99710000      19.46180000       6.78768000       0.89928471      -3.84926973       1.56579641
H       14.57010000      20.06660000       5.69607000      -0.17191894       0.27638195      -0.31728060
H       15.70810000      17.80560000       7.20484000       0.04972110      -0.05676875      -0.49717197
O       12.55390000      14.87990000       4.11286000       2.57208664      -0.63300362       2.17259580
H        9.16389000      14.31640000       5.12444000      -0.13197805      -0.01324631       0.01544202
H       13.34810000      13.54620000       5.01155000      -0.34727227       3.67128289       3.01839178
O        8.16374000      13.81510000      20.69530000       2.17640040      -1.34133355       3.92839969
H        7.15015000      14.25380000      19.16010000      -0.04045670       0.23137691       5.89007117
H        7.97636000      15.22470000      21.79170000       0.03221975      -0.13494428       4.51569010
O        3.07132000       7.26373000       5.42267000      -0.44501333      -1.99798149      -3.66788412
H        3.49462000       6.07026000       6.72928000      -4.28327643      -0.23735750      -0.86413223
H        2.27474000       8.59305000       6.54323000      -1.36579973       0.63769807      -1.50633908
O        2.28714000      18.81430000       5.88967000      -0.05597220       4.50672869       0.74103049
H        2.68857000      18.06930000       4.27559000       0.61804377      -1.88964217      -0.56941881
H        0.39520600      19.22380000       5.59305000      -0.12751893      -0.10087676      -0.15842119
O       11.65060000       4.83124000      10.06070000       2.51765396       3.98307322      -2.60667074
H       13.39980000       4.52035000       9.49747000       3.03956546       0.11763801      -3.13189933
H       11.75070000       3.89942000      11.69570000      -2.27272785       3.38593201       3.07083358
O        4.41965000       5.06693000       1.28858000       0.56928406       4.29650255       0.77853480
H        3.80062000       6.53221000       2.34019000       0.07802683       0.07367139      -0.16660197
H        3.47439000       3.61821000       1.56564000      -3.69690980       0.97835923      -1.95789522
O        4.20394000      14.71300000      16.88360000       2.77894532      -1.31043832      -3.60018294
H        2.94354000      16.08100000      16.80820000      -1.74771611      -2.13536639       1.22423025
H        3.38643000      13.47930000      17.94320000      -1.95912969      -3.19679548       2.68760207
O        5.71305000      14.77330000       2.20661000       1.51122734      -1.10874671      -3.63800476
H        6.06696000      16.41910000       2.96574000      -4.46333649       1.68050882       1.99590180
H        6.37800000      13.68500000       3.24501000       0.96128830       1.43954751      -4.11118316
O        7.26065000       9.39790000       0.44570000       0.50346851      -0.10020413      -5.86932749
H        6.26345000       9.76058000       1.89279000       0.31413598       0.01817599      -0.00335032
H        6.70209000      10.49840000      -0.84217400       1.94305534      -4.09456360       1.69399013
O        3.53735000       2.60035000      16.02180000      -2.71216349      -3.04749865       0.46153144
H        3.96613000       4.27925000      15.30090000       2.10156945      -3.56414450       2.38111476
H        4.57866000       2.39886000      17.45260000       0.11986835      -3.19184697       1.90378547
O        3.05101000       4.72445000       9.08415000      -1.76688895      -4.47313186       1.48833187
H        3.49087000       6.24967000      10.07210000      -0.89233105       3.87624395      -1.73771836
H        4.45497000       3.50653000       9.25592000      -0.49286177       0.20371741      -1.51671778
O       18.38640000       4.69908000      11.05680000       3.17711056       1.26074536      -2.63042583
H       17.75140000       6.05747000      11.51510000      -2.79826089      -1.19147604      -2.90727581
H       19.46430000       4.46954000       9.45010000       3.30331621      -0.64392844       2.08149022
O       10.90780000      10.53900000       9.22395000       3.42888036      -2.36878035       2.62923310
H       10.55700000      10.85130000      10.92850000      -0.72318717       3.74901801       0.34896964
H       11.11660000       8.33864000       9.56893000      -2.19252006      -3.82962144      -0.77000804
O        6.09883000      22.72370000      11.25810000       0.50722429       0.05781320       0.02726707
H        5.61247000      23.97660000      12.42230000       0.03163332       4.38576813      -1.17487592
H        5.17347000      20.91070000      11.74970000      -2.64684039      -3.59996997      -1.09342075
O       14.72030000       1.16477000      10.57460000       0.56613711      -0.87375591      -3.74423134
H       15.96400000       1.96071000      11.06890000       3.50093742      -3.28460491      -2.01981374
H       16.32360000       0.00849400       9.07741000       2.68406512       2.60737667       2.33503961
O        6.60385000      15.59660000      12.55530000      -0.37739858       4.49098185       0.89223616
H        6.27935000      15.31660000      14.33710000      -2.37912585       2.56354026      -3.03993245
H        5.42163000      14.75450000      11.43040000      -1.01545777       1.85737196      -3.73294507
O       10.43270000       4.19796000       5.61393000       1.67746424      -3.88984952      -0.88934123
H       10.75100000       3.72801000       7.28584000       0.00778200       2.97568440       2.63459386
H        8.74522000       3.98083000       5.01485000       2.57764450       0.28179219      -3.08161973
O       11.60470000       6.99102000       1.60334000       3.61149215      -0.86962396      -2.52614814
H       11.10330000       5.62798000       2.88032000      -3.02930767      -2.13980055       1.97079125
H       10.15230000       8.09712000       1.35911000       2.11364088       2.94991192      -1.76366047
O       17.24020000      12.88440000       9.11143000       2.12732964      -3.49456591      -2.95008879
H       16.97950000      11.95030000      10.91450000       0.62996695      -0.95622804       4.11884940
H       17.15460000      11.59110000       7.86293000       2.25489881      -3.97409465      -1.30991629
O       17.54030000      10.37520000      20.28550000       2.89205798      -1.17703711      -1.70941811
H       17.41820000       8.37027000      19.02860000      -0.59292414      -4.75051887       1.36391981
H       17.94790000      10.06180000      22.07010000       0.79695191       0.01494488       0.48671088
O       19.94860000      19.30220000      21.89530000      -0.43031046      -0.23642869       0.51865695
H       18.34780000      16.41590000      20.11120000      -2.93373583       1.62004306      -2.44162504
H       19.59720000      21.06120000      21.20830000      -0.75615680      -4.35036828      -0.47973343
O        5.04555000      20.22830000      20.16330000      -4.37556900       0.19299550       0.86956212
H        4.76796000      19.99630000      22.07980000      -2.76537999      -2.50582436       2.40010141
H        3.44085000      19.42460000      19.40980000       2.12300378       4.05660285       2.18556128
O        6.97349000       0.24803100       6.53741000      -1.07135386       0.93190172       4.79972748
H        5.21929000      -0.27595100       6.24927000       0.80459161       1.93139224       3.57993416
H        6.97882000       0.31002600       8.06921000      -2.21986813       0.87037746      -3.23734362
O       12.89330000      13.22870000      18.43690000      -1.39937094      -3.66745260      -1.61204540
H       11.71410000      13.63580000      19.60720000       3.62848852      -1.31732410       2.32152905
H       14.35330000      12.67800000      19.41370000      -0.17323327      -0.03999429       0.00607633
O       21.79930000      11.35200000       5.23275000       4.35587724       0.18443500      -1.78611477
H       20.15490000      11.78860000       4.45187000      -2.78582218       3.16210453      -0.31244870
H       21.74600000      11.29970000       7.06685000       1.17411926      -2.96033510       3.10971469
O       21.89250000       3.42706000      20.65420000       0.67260439       4.85133754       0.22924989
H       22.84630000       4.38423000      18.73770000      -2.60827999      -4.31359567       0.69666051
H       21.11710000       4.58985000      21.71640000      -1.18950291       3.35105603       2.11406731
O        1.17194000      19.34050000      10.75610000       1.59836310      -3.15605764      -3.22644564
H        2.48473000      19.38440000       9.41184000       0.26035660      -2.11342958       3.76105422
H       -0.24912000      18.53810000      10.12480000       4.13878183      -0.69051099      -1.42547103
O       17.21940000      15.29380000      20.44400000       3.32902815       0.84989853      -3.13882364
H       17.81390000      13.39420000      19.93320000      -3.78388675       0.84610567      -0.45960643
H       15.82560000      16.16160000      19.30930000       1.05676207      -1.94496439      -4.10763792
O       22.36270000       0.66353200       2.35101000      -1.26973499       4.69234693      -1.55652069
H       20.50850000       0.54134300       1.98945000      -1.64717542       2.88108578       2.35500733
H       23.09270000       1.79830000       1.02788000      -3.93251952       0.24927176      -1.28095104
O       22.33170000      10.28540000      14.45690000       3.77209511       0.99872929      -2.76689993
H       20.46000000      10.42940000      14.74160000       0.25439732       0.05163543      -0.28583378
H       23.34770000      11.77340000      13.80310000       1.05064841       2.77771177       3.32486235
O        1.49937000      10.25690000       9.39843000      -0.04191877       0.05964135      -5.71693287
H       -2.65471000       3.42942000      10.26410000      -0.82019540      -4.14458123       1.42168710
H        2.14100000      11.88630000      10.14810000       0.28921552      -4.56394142      -0.92442940
O       20.05300000      19.07860000       4.29808000       3.54874300      -3.22503380       2.20152121
H       18.74240000      19.61390000       5.46597000       0.22112802       0.30299800      -0.86115112
H       19.49160000      18.88500000       2.41841000       0.07383975       0.10956077      -0.36710252
O       -0.07610200      22.25480000      15.04510000       0.71556797      -3.68336785       1.66998284
H        0.14572700      21.86250000      13.42560000      -0.53458133       0.07522494       0.86214443
H        1.20882000      23.50740000      15.36190000      -0.25385157       2.46853920       0.59134817
O       19.70900000      17.34820000       9.20629000      -1.06578110      -3.24197988      -3.89000245
H       20.02820000      16.18770000       7.56193000      -0.35246225      -2.28424247       2.95223767
H       18.48180000      18.59860000       8.69745000      -3.17218181       1.28160395       2.25106008
O        8.33133000       8.41579000      14.64020000       3.73985972       1.99119737      -2.37506348
H       10.40660000      13.55440000      22.53080000      -3.08134861       1.62235834       2.90863452
H       10.17670000       8.57578000      14.38720000      -2.69753832      -2.49944453       2.97247578
O       18.62020000       8.93859000       2.25895000       3.47453481       3.30757244       1.07681717
H       20.03800000       7.87679000       2.51778000       4.16442355       1.68857191       0.91470047
H       17.15440000       8.73707000       3.39192000      -2.46918778       3.06944955       1.90492763
O       14.20400000      18.28370000      19.27570000      -4.30592043       2.79806015      -2.19473533
H       16.05540000      19.93180000      19.21440000      -0.22945997      -4.66236119      -1.23373079
H       12.90090000      18.83970000      18.20340000       2.90569137       2.70980834       0.75300886
O       10.67960000       6.20783000      18.93990000       3.28486366       0.64664840      -2.72993428
H        9.89940000       6.26987000      20.76100000       1.10898449       3.87884770       0.63405383
H       10.10560000       4.39780000      18.73990000       0.27250928       3.12056059      -0.19091553
O        1.13766000      18.12510000      17.99900000       0.50326953       0.18987187      -5.60787787
H       -0.52167500      18.23840000      19.11700000      -0.41299662       0.10481890       0.00165635
H        0.76794500      19.79300000      17.21780000       0.88456542       3.67632159      -1.66664870
192
Lattice="24.06472 0.0 0.0 -1e-06 24.06472 0.0 -1e-06 -1e-06 24.06472" Properties=species:S:1:pos:R:3:REF_forces:R:3 REF_energy=8301.300883024262 pbc="T T T"
O        5.01566000       1.81683000       2.78860000      -0.49859001      -4.50495590       4.12089394
H        6.03289000       2.41475000       1.64574000      -2.55964880       2.85520889       2.91278662
H        3.55386000       3.10105000       2.64666000      -1.24440875      -3.42985684       3.74207444
O       15.69910000       9.38969000       5.24215000       4.82891570       0.00412967      -0.91772153
H       15.92950000       9.33549000       3.33053000      -2.17775966       2.43929034      -0.92045502
H       17.40910000       9.20088000       5.80203000      -0.41719212       0.12446032       0.32098634
O       14.76460000       0.89163700      22.38940000      -3.16031568       4.48643968       0.67990828
H       13.95160000       0.88987500      23.91990000       4.39607165       0.23083921       2.49856914
H       13.82470000      -0.02540200      21.32530000       0.52337442       4.57135288      -0.20613966
O       22.51800000       1.76908000      12.23790000      -2.46747386      -1.63953302      -4.43956673
H       21.18180000       1.50057000      11.17900000       2.80784828      -3.89784669       0.04423743
H       21.90560000       1.37626000      13.86360000       0.32052147       2.73257568      -0.68560393
O       22.85050000      16.60140000      12.88920000      -1.66872355      -2.98749382      -5.38580486
H       24.28360000      15.50220000      13.46540000       2.73385155       0.86767378       2.51536789
H       23.84540000      18.58300000      13.96230000       2.05164281       2.60410107      -3.56264620
O       22.73680000      22.78010000       6.57973000      -3.14575856      -3.91518662       0.98496912
H       21.72650000      24.10180000       5.58919000      -3.60015494       0.21204100      -0.61144896
H       21.64520000      22.37810000       8.17012000      -0.16907087       0.06652085      -0.44830456
O       14.81380000      18.11470000       8.83943000      -5.24090524       1.25226475      -2.99166117
H       13.75240000      16.43690000       5.91294000      -2.31030431       0.45974852      -3.37163522
H       14.23700000      16.80630000       9.99420000      -0.30898632      -0.49141181      -0.42503513
O        6.37879000      24.07630000      18.26380000      -3.31191137       1.68954543      -3.89414124
H        5.96175000      22.26320000      18.68280000      -1.10305757       4.88990478       1.48142282
H        5.02762000      24.42030000      16.91880000       4.61811857      -0.46952987       0.37845790
O       20.98280000       7.77878000      11.60430000       2.66492316       1.70159251       2.75523767
H       22.32480000       7.86987000      10.21440000       2.34738365      -1.29251157      -2.27470286
H       20.17570000       6.40008000      10.85150000      -3.19635868      -1.94567336      -2.47210990
O       23.06840000       5.16310000      19.95260000       2.76364417      -0.81892543       3.12387738
H       21.27270000       5.13312000      20.85010000      -0.34921239      -0.00974817      -0.18735856
H       23.81360000       3.01798000      19.89080000       0.46428360       4.67386084      -1.76384682
O        5.45018000      14.98650000      17.38690000      -0.02761310       0.16443739      -0.26283147
H        6.13812000      14.49030000      15.70280000       1.49553084       4.91225893       1.31635393
H        6.09632000      13.77220000      18.48900000      -3.49408520       0.28356707       1.79827184
O        2.80939000       8.08761000      22.12780000      -0.00851208      -6.46123081      -2.69551632
H        4.64907000       7.25943000      22.10730000      -0.06292588      -0.05224146      -0.29203019
H        1.84176000       7.17822000      20.70110000       0.03009473       4.70017809       2.10649744
O       15.46180000      15.02050000      12.75950000       5.43557326       1.81414135      -1.15963132
H       14.89250000      15.96130000      14.35860000      -3.68056921       3.87147798      -2.13843209
H       17.32870000      14.84590000      13.33410000      -3.98446903      -1.85713121       1.34875417
O       16.32520000       8.19343000      24.29690000       2.06049291      -4.45795200      -2.19925042
H       16.36280000       6.93348000      22.75440000       0.40372119       0.57923511       0.11627018
H       17.68790000       9.37459000      23.91190000      -0.31286603      -2.00549888       0.57554691
O       18.35220000      16.08960000       2.85170000       1.21467981       3.88459461       0.82492643
H       19.68010000      17.42970000       3.16782000      -3.03635223       3.06040673       0.64341071
H       17.87260000      15.83420000       4.50826000       3.99415553       1.79306502       1.02811276
O       12.43860000      17.90660000      16.48380000       2.70257190      -6.03246748      -0.96734072
H       12.00110000      17.81430000      18.16150000       3.24547336       3.91360429      -0.47934861
H       13.55450000      19.36520000      16.38290000       1.12939099      -2.57092230       3.99998070
O        6.91905000       7.84184000       5.47316000      -1.44718390      -5.90369620       1.72859470
H        8.00252000       7.34025000       4.07476000       0.04908428      -0.64715844      -0.42179447
H        7.94464000       6.68383000       6.57685000      -0.46451460       0.70019478       0.07635362
O       13.24620000      14.12960000       5.81133000      -3.49842650      -4.37347318      -1.87055379
H       11.19460000      13.58770000       5.63032000       0.34445386       3.35697652       4.70123419
H       14.51360000      13.43010000       4.43755000       0.92962249       2.10845808       2.96131279
O       17.79180000       3.62453000      10.50730000       4.27375819       2.91678623       2.37024281
H       16.63850000       3.34968000      12.19760000      -0.18863922      -2.50519002      -3.11170592
H       16.48640000       3.49978000       8.96720000       0.49428888      -0.31387266      -0.07844260
O       20.31930000      23.40770000      22.94090000       2.41423747       2.43321172      -3.36248192
H       20.84240000      22.29800000      23.96010000       1.87268620       0.43890419      -1.00046845
H       19.73590000      24.65560000      24.26900000       3.43073214       3.31480946      -0.82520179
O        0.81891700      24.39380000      20.02820000      -2.69062833      -3.08729201       1.91032970
H        1.64877000      22.92190000      20.45570000       4.24112608       1.65533780       0.42573792
H       -0.84254500      24.18500000      21.00990000      -2.96879727      -3.24806670      -3.29339028
O        4.80143000      19.57570000      20.20680000      -2.38011945       0.18254899       3.57653928
H        4.99546000      19.64490000      22.02940000       2.35927382      -3.68661699      -2.08370324
H        5.27664000      18.06960000      19.81890000      -1.88249516      -2.48449646       2.21391673
O        9.69623000      19.63680000       1.48818000      -0.09272758       0.44776069       2.53045352
H       10.22510000      20.37500000       3.09052000      -2.41398277      -0.58330873      -4.69764979
H       11.02880000      18.60470000       1.17617000       0.07384671       4.26195825       0.52063249
O        2.36643000      20.34050000      15.22760000      -5.09144139      -1.34045199      -2.95169744
H        3.88691000      19.44720000      15.43450000       3.45284948       0.97732956      -1.21327255
H        2.95741000      22.01600000      14.74370000      -2.09285004       3.17823507       0.61586017
O       20.62200000      12.78320000      18.29820000      -1.77252436      -3.01506169      -2.40983733
H       19.31720000      11.75610000      17.26350000       4.84691843      -1.84113627       0.31977034
H       21.97950000      13.26630000      16.86070000       0.94922308       1.88772201       3.05733978
O       17.73110000      10.27910000      14.38200000      -1.19711391      -2.30548515      -5.09492218
H       15.96700000       9.66089000      14.66830000       0.83887349       2.92751785       3.11129165
H       18.91930000       9.01196000      13.64940000      -3.36169899       2.74950334      -2.21664398
O       19.29830000      20.86390000      10.04790000       3.31743105       0.32466775      -4.30929050
H       18.57770000      19.72670000      11.33020000      -3.42886842       3.48983569      -0.42753473
H       18.00390000      21.82230000       9.27549000      -3.03525146       1.40744922       0.38093693
O        7.27811000      17.24380000       8.37700000       2.96868349      -0.28699339       2.80515945
H        5.44880000      16.90870000       7.91695000      -2.46776301      -0.16971521       3.94719035
H        8.15350000      15.80150000       8.09266000       3.05383366      -2.54572291       1.94840215
O        0.87573500      12.51700000      15.31090000      -4.91987586       0.71179236       2.59074772
H        0.78784800      10.32880000      15.33020000       2.11941388       3.87293343       0.94490971
H        2.00962000      12.67070000      16.60720000       2.16119155       0.24404318      -3.52818231
O       13.57700000       1.42372000      12.47700000      -5.12234621       2.79149386      -0.40581706
H       12.31610000       2.40249000      11.69040000      -0.00741405       0.05598449      -0.13023987
H       13.63070000      -0.01421700      11.37260000      -0.47494109      -0.11357586      -0.13122361