192
Lattice="24.37236 0.0 0.0 -1e-06 24.37236 0.0 -1e-06 -1e-06 24.37236" Properties=species:S:1:pos:R:3:REF_forces:R:3 REF_energy=8300.581704267835 pbc="T T T"
O        7.38732000       7.13187000       4.05592000       2.59560586       4.05646844       1.47348001
H        7.19359000       6.38463000       2.34548000       3.65770615      -2.53182457      -1.38895488
H        6.35063000       5.97647000       5.17665000      -0.73886322      -1.40772558      -3.71331403
O       17.63160000       6.04431000      19.62010000      -0.65997421       3.58129388      -2.12735312
H       17.19340000       4.65125000      20.85060000       1.43246804       3.82031084       1.85052411
H       16.16310000       7.10739000      20.24060000      -3.68384522      -2.07499418      -0.78836662
O        4.19561000      19.03090000       3.82324000       1.27103716       5.24630269       4.20201025
H        3.02192000      18.02040000       2.52258000      -2.64520903      -1.55869662      -3.19616231
H        3.60081000      20.76360000       4.17580000      -3.13866647       2.93621230      -0.55525178
O       17.95720000      21.14090000       7.27076000      -2.93770584      -4.56261459       2.78503335
H       17.02130000      19.40690000       7.10924000      -0.07435387       1.67553336       4.72846196
H       16.88750000      22.63730000       7.38714000       3.05402009       1.88463141       1.83660785
O        2.63939000       0.21765600       3.24497000      -0.95109077       4.23580819       4.63617070
H        3.60001000       1.34639000       4.50691000       0.06150506      -1.73314155       4.60269377
H        2.50394000       1.73979000       1.94665000       2.91735148       1.96841237       2.52133385
O       20.54760000       9.80664000       7.09812000      -2.81268006       4.42734569       0.13251808
H       19.41610000       8.56073000       7.81647000       1.36310011      -3.91469062       0.26815600
H       20.44880000      11.12470000       8.42031000       3.43586682      -1.22882522      -1.14541020
O       14.31860000       0.69243300       7.41056000       1.04036900       5.17988356      -2.97452699
H       14.76610000       2.52715000       6.72525000       1.11224485      -0.31552007      -4.68127146
H       12.70580000      -0.06828100       6.73838000       2.78097336      -3.09046658      -0.68596937
O       13.04110000       0.62736400      13.12570000       3.48536093      -2.63056780      -0.68944395
H       14.29390000       1.62007000      13.83680000       3.93640297       0.35974470      -2.34484868
H       12.97920000       0.80503000      11.31750000      -2.76223689       1.91504419      -2.86614135
O        2.81955000      13.31470000       9.34867000      -1.17280004       0.16378818       4.63108317
H        2.96765000      12.79260000      11.38680000       0.19322246      -3.38196747      -2.36388118
H        1.32775000      14.23490000       8.57318000      -0.75785507      -4.54414477      -0.55144836
O       12.11190000      17.08500000      17.70610000      -2.23242489       2.68691220      -1.26110292
H       13.66660000      18.06510000      17.13650000       1.07228737      -4.08890955      -0.81775319
H       10.49130000      17.92540000      17.41690000       2.34063420       0.85944087       2.36907800
O        3.52965000      17.17720000      22.75950000       3.65806831       1.94878772       0.33989526
H        2.72551000      17.08910000      21.12130000      -3.77045562       1.23646840      -2.51982568
H        3.80540000      15.45880000      22.74230000      -0.92077007      -3.88590846       1.07638061
O       21.90840000       1.03871000      14.25480000      -0.85869361       0.32181031      -3.33814820
H       22.49840000       0.64798200      15.97440000      -1.36797727       1.30708346      -3.82590090
H       21.45310000      23.70160000      13.41810000      -0.26937099       0.64065965      -4.22618800
O       23.39850000      16.12990000       7.91826000       3.96882200      -0.30790223      -0.03136258
H       -0.44992600      17.80690000       8.40443000      -1.72528600       2.88283111      -1.44439905
H       24.06330000      16.24650000       6.16963000       0.44667630       4.77740526      -0.10001147
O        4.52766000       7.24190000      21.13760000       1.19894697      -2.11951043      -3.29106245
H        5.96567000       6.31424000      20.24570000      -2.39375447      -1.30806321      -0.56748906
H        3.91156000       7.81463000      19.48290000       0.08357200       0.09364470       0.11419393
O       14.55610000      18.13670000       0.41462200       0.32602203      -0.19022701       0.11360826
H       14.34550000      17.84060000       2.15239000       2.50720629       1.25609225       3.16267109
H       13.18240000      17.22310000      23.79110000       0.18090392      -0.08078312       0.02046571
O        6.65221000      13.47890000      20.28880000      -1.25913892      -2.12522824       3.99864369
H        6.31983000      14.29630000      18.68920000      -0.63377644      -3.20177573       0.94663226
H        5.63235000      11.99430000      19.92040000      -0.09860492       0.04240691       0.28430984
O        9.78374000      15.81160000       4.53965000       0.02784188       3.54924075       5.26530262
H        8.59880000      14.38070000       5.18405000       1.21952462      -1.65064611       3.64237591
H        9.41055000      17.20440000       5.59434000      -2.53922566      -1.22370532      -1.47989611
O        1.38850000       3.77470000      23.68260000      -1.19035047      -2.25026456       5.20129392
H        0.00021400       4.72326000       0.20766000       1.49405215      -2.63984176       2.40695849
H        2.49795000       4.54404000      22.27080000       2.88299713      -0.88179465      -2.53521666
O       14.84630000      11.43980000       6.42148000       3.51624029       3.28979650       2.04925525
H       13.63230000      10.80730000       5.10351000       1.69882022       0.33875128       0.86404898
H       13.99360000      10.19330000       7.53004000      -0.06229157       0.00566523       0.35825163
O       20.12160000      21.56010000      18.08720000      -1.25105499       3.99064974      -0.58422519
H       17.71160000      22.70380000      15.47240000      -0.52745099      -4.23678855       1.50528834
H       19.98280000      19.81030000      18.04630000      -1.94889339       4.64764802       0.03314828
O       17.06760000       4.52709000      14.77380000       0.53494169       0.35736194       5.84258659
H       16.83330000       4.74505000      16.52510000       1.48577814      -4.02271157      -0.73871754
H       18.79540000       3.90038000      14.07220000       2.25716213       1.73750617       2.05899507
O       12.95940000       7.98468000       2.92404000       3.65012780       0.40567725      -2.97043223
H       11.27260000       7.56084000       3.63218000       3.52975332      -1.13853067      -1.73094728
H       14.22050000       7.25631000       4.19979000      -4.76537750       0.33618480      -0.49816938
O        4.92413000      22.75060000      22.01030000      -1.94493552      -1.79578528       2.73927096
H        3.68107000      21.44980000      21.81670000       1.10000468      -3.62541822      -1.53281711
H        5.81473000      22.01660000      23.46360000      -0.30455208      -0.05564081       0.08467132
O        1.60436000       9.02653000      17.32630000      -3.27323779      -3.06526779      -0.63945163
H        1.33652000       7.92904000      15.85400000       1.71113349      -2.05965041      -1.86137242
H        0.16597000       8.99716000      18.69810000      -2.79196259       0.25054283       3.36105191
O        4.48905000       3.58648000       6.94954000       1.21931175       1.55475674       0.23140686
H        3.04202000       4.45997000       7.62074000       0.46407659       0.07413565      -4.47224027
H        5.92338000       3.29865000       8.21627000       0.48566338       3.66609570      -2.74944956
O        0.59350200      20.97750000       9.17061000       0.74162161       1.04995848      -4.60822822
H       22.97500000      21.23560000      10.55510000       0.10179559      -0.73941808       2.76882235
H       -0.16242000      22.24630000       7.95411000      -0.06058979       0.24626395      -0.01825778
O        1.24535000      13.71600000      14.65600000       3.52566538       1.00873789       0.20593637
H        1.53057000      12.07180000      15.50220000      -2.64620861      -2.68775149       0.34620503
H       -0.31780200      14.97960000      14.80550000      -3.16352760      -3.37703897      -0.60880252
O       23.08610000      15.32820000       2.63665000      -3.23469109      -2.94818210       2.31505596
H       22.04340000      16.50390000       1.67697000      -3.49560351       1.26217199       0.90755871
H        0.34384100      14.79060000       2.02790000      -0.22285085       0.23586022      -0.02828376
O       23.28910000       7.88644000       2.26332000       4.10626517       0.73876526      -4.07799579
H        0.16610600       8.97448000       1.25330000       3.48598160       2.87825898       0.70807992
H       21.76060000       8.85494000       2.67632000      -2.74138678      -3.60275545      -0.09411536
O        4.78593000      16.14290000      16.76200000      -3.54578576       2.82088983      -2.88662179
H        6.03322000      16.58620000      15.26040000      -0.88183295       3.13119875       3.16457068
H        3.35318000      15.02960000      16.20210000       0.52993049      -4.62872054       1.13444757
O       19.82260000      13.91250000      20.41220000       2.56413229      -1.07125825      -1.00545911
H       19.48000000      15.55240000      21.36470000      -1.90400320       1.45283836       1.08910815
H       20.25180000      12.34640000      21.30010000       2.71480729      -1.10171134      -3.45408761
O       10.43150000       0.94437900       2.71997000      -0.10950776       0.13312465       4.44844887
H        8.90005000       1.08687000       1.63624000      -0.27820729       0.17371804       0.16605711
H       11.62440000       0.66510800       1.36986000       3.06878731      -0.70427091      -3.40594012
O       18.65830000      14.49810000      10.68560000       1.26597172       2.35588251      -4.28679095
H       20.21110000      14.64040000       9.71548000      -0.07609696      -0.28723042      -0.14270141
H       17.49220000      15.29740000       9.47057000       1.40431778      -1.01726136       4.16384515
O       11.04750000       0.64374400      17.93250000       3.97374900       1.32960688       3.42516554
H        9.47819000      24.04740000      18.04450000      -0.99167376      -3.01485763       2.65346286
H       11.25780000       0.67712700      16.09620000      -2.19968913      -2.41021699       2.52514231
O       20.47680000      19.65360000      12.51560000       3.18714495      -0.94676898      -3.98274916
H       19.89100000      19.81050000      10.80800000       0.03746625       0.38551670      -0.59611555
H       21.10240000      17.90600000      12.20920000      -1.55817559      -3.41932833      -0.30163333
O       15.24430000      20.64260000      14.59720000       3.47546134       1.72841432       4.88752013
H       14.30450000      22.21400000      13.77410000      -1.28129846      -0.89902281      -3.12307307
H       16.66380000      20.23180000      13.32180000       2.20789086       1.57141298      -2.88848450
O       17.36440000       2.13005000      23.27220000       1.37001962       2.90116425      -2.15810506
H       18.59890000       0.71111600      22.95680000      -0.34426762      -0.14670252      -0.11937157
H       15.48470000       1.05990000      22.80420000       3.00893469      -1.88528057      -1.91476535
O       21.96450000      23.18710000      22.84890000      -0.44389616      -3.18884346       1.48997212
H       22.36730000      23.07740000      21.10350000       0.80440787       3.43361177      -1.27459645
H       23.62110000       0.02462900      24.18260000      -1.43816570       1.27118221      -4.04148634
O        3.25135000      10.63840000       0.49785800       3.34239776      -2.18560754       1.25840182
H        4.38410000      11.21080000       1.92914000      -0.61954386      -0.85761067       4.83022365
H        4.40895000       9.20476000      -0.69139700      -0.21632138       0.01798511      -0.10895280
O        8.46703000      10.03980000      11.12660000      -2.21958032       0.46137684      -2.98114227
H       10.27160000       9.42743000      10.54700000      -0.20217840       3.19256528       3.13469700
H        8.04886000       8.10337000      11.73130000      -0.78977873       2.03971990      -3.97997306
O        0.72570400       2.18323000      17.76700000       0.41755371       4.98214694       0.27949568
H        1.36349000       0.37123700      17.87990000      -2.85060396      -3.11982179       1.76844771
H       -0.00550600       2.66641000      19.67600000      -2.52289449      -3.74753093      -1.00338169
O       21.94720000       8.73140000      20.87950000      -0.38300948       4.41592149       1.33267166
H       22.42250000       7.91291000      22.54380000      -2.27295329      -2.82314126       1.16764084
H       20.27850000       7.83207000      20.00930000      -0.83362505       3.86784805       2.84615869
O        9.26493000       5.42898000      19.82630000       0.45583583       4.43824805       4.00361898
H       10.57110000       6.24983000      20.89770000      -0.25400035       2.83102896      -2.39170349
H        9.82113000       3.66717000      19.49450000       1.60782063       0.29887499      -4.04726292
O       12.97880000      23.27790000      22.76730000       1.39255481       3.11318132      -2.20304907
H       13.75090000      21.84320000      23.83000000       3.42755728       1.87809583      -1.16154493
H       12.91590000      23.38860000      20.90930000       1.30754613       4.20260043       1.26148042
O        1.52645000      21.03270000      17.82540000      -1.73119106      -5.20279079      -0.21595453
H        0.40630600      20.37540000      16.50120000       3.06828571      -0.65824711       2.43944583
H        2.95032000      20.04070000      17.28130000       0.03294536       0.12154881      -0.04792923
O       14.47580000      16.99240000       7.89052000      -0.52140229      -5.22557399      -1.90954057
H       13.06690000      18.20000000       7.58688000      -3.77769707       2.14852245       1.47917705
H       14.47210000      15.42790000       6.79301000       0.45545797      -0.87950088       2.97215398
O        6.37468000      18.29080000       8.55661000      -4.00164652       0.26362564      -0.17571607
H        4.91921000      18.74050000       7.57306000      -2.04967129      -0.27966289      -4.15762373
H        5.90812000      16.47850000       9.04388000       0.74237997      -4.95769259      -0.09794038
O        1.60924000       5.35887000      13.57630000       2.87822343       0.00563720      -4.95822096
H        1.00942000       5.94194000      11.86920000      -0.30291233       0.27324994      -4.56949805
H        0.24288000       3.92190000      13.77820000       0.73686293      -3.83430448       2.00809873
O       19.92010000      17.87900000      23.56230000       0.14552488      -5.03470487      -1.01093463
H       20.08730000      19.65910000      23.51660000      -3.00114819      -0.20998420       0.74748718
H       17.86040000      17.76210000      24.08050000      -0.21544278      -0.12886327       0.43092092
O       22.26940000      23.45350000       5.26596000      -3.99397104       2.02293543      -1.64601866
H       23.37290000      23.00110000       3.85690000      -3.58297433       0.36231510      -2.48978739
H       21.01090000      22.15560000       5.02032000      -2.57061819       2.96160257      -2.36924187
O        6.56734000      11.81910000       5.26875000      -1.26519974       2.11606427       1.84498038
H        4.91787000      12.92860000       6.28770000       1.07990689      -3.94899653       1.80947189
H        6.70968000      10.09940000       5.72433000      -0.82068055       3.43862549       1.62432119
O        7.93683000       2.08471000      10.93500000      -2.56373163      -1.02566121      -3.07680675
H        7.52969000       3.31407000      12.24250000      -3.06198020      -2.35726172      -0.90495171
H        6.78337000       0.65552800      10.97950000       2.41952954       0.95898446      -2.66220578
O        1.23827000       8.08386000       8.66527000       4.79959310       4.42392092       0.35084882
H        2.64912000       9.23898000       8.93479000      -3.74889251       2.38826265       0.94471580
H       -0.36095800       9.22770000       8.24438000       0.12486408       0.11403841      -0.20485302
O        6.67760000       6.41583000      14.90410000      -1.54770473       0.58423196       5.89500937
H        4.88113000       7.07623000      15.41940000       0.48923040      -0.11517205      -0.16647058
H        8.02448000       6.94585000      16.38190000      -4.12546128       1.80889706      -0.67819462
O        9.07034000      15.19390000      12.46060000      -0.20178333       0.45859011      -3.24352740
H        8.88649000      13.41070000      12.28260000      -2.98929750       1.92185074      -1.93036711
H       10.59410000      15.95290000      13.36330000      -2.41036094       3.71664198       0.28695447
O       15.05540000      12.29980000      17.63620000       2.70967975      -4.52645552      -0.55758413
H       17.18560000      12.76080000      18.75480000      -2.83820960      -1.46111253      -2.86584800
H       14.38770000      13.90800000      17.65530000      -0.42524475      -5.00892314      -0.11507352
O       14.18370000       8.69812000      11.52000000      -1.33271328       1.26747371      -3.99802926
H       14.78550000      10.18080000      12.42680000      -1.26182504       4.06632646       1.00274840
H       14.02960000       7.02532000      12.27090000      -0.37244874      -1.64743321      -4.04270407
O       13.73470000       8.94822000      21.21780000       2.84111359       0.45695944       2.80509852
H       13.93900000      10.41400000      20.17370000      -2.01905502      -1.97062880      -2.29521484
H       13.70600000       9.56208000      22.86080000      -0.98616801       0.64242973       4.64567166
O        7.91786000      21.64170000      16.81250000       2.92369873       2.41025652       0.87023817
H        7.41640000      20.98010000      15.08410000       3.22523754      -1.17453553      -1.64193438
H        6.65019000      21.70710000      18.16040000       2.20002201      -1.75131390       3.50052755
O       16.85610000       4.56007000       4.21114000       4.82571688       2.59225832       1.40940237
H       18.24250000       5.52583000       5.37655000      -2.60749521       0.05336236       2.63831522
H       17.99680000       3.25778000       3.00632000      -4.00793104      -0.86149528       1.62728608
O       11.19060000      14.60210000      23.72700000       0.62939236      -1.55021412      -3.83093897
H       10.82810000      14.71180000       1.17718000      -0.40832574      -2.46485689      -3.58795647
H        9.56746000      13.71160000      23.33810000      -2.05228356      -2.92922450       2.46592538
O        5.29275000      21.31880000      12.29560000       0.77085572       1.55022869       3.65635828
H        5.76844000      19.63190000      11.51850000      -3.10664033       2.26163720       1.33184578
H        3.50600000      21.40390000      12.08480000      -3.26481496      -3.37414541      -0.54297175
O       19.73080000       4.91003000       8.69305000       0.63410181      -3.72572008       1.73675984
H       21.41240000       4.34391000       7.91657000       2.65128021      -1.41902905       2.69034507
H       19.79590000       4.27794000      10.35200000       1.97613059       2.31385142       2.56069605
O       20.86360000      14.76510000      15.66290000       2.11364075      -2.89129620       2.52740707
H       20.70390000      14.12460000      17.65260000       3.50365460       2.70931094       2.20026656
H       20.01280000      14.14270000      13.94360000      -1.48424806       0.38513125      -4.33860496
192
Lattice="22.4922 0.0 0.0 -1e-06 22.4922 0.0 -1e-06 -1e-06 22.4922" Properties=species:S:1:pos:R:3:REF_forces:R:3 REF_energy=8308.777835314304 pbc="T T T"
O       10.85070000      17.98420000       0.99447200      -1.92996767       3.98702607      -1.45515625
H       11.26420000      18.41180000      -0.75078600       0.97224491      -0.60935881       4.24241435
H       11.55590000      16.50750000       1.66738000       0.68735583      -2.08718142      -2.81390765
O       21.00580000       3.60178000       7.27777000       2.55255891      -4.52700247       0.49051698
H       22.80500000       4.05516000       7.48973000      -2.92266689       1.32408266       3.06873207
H       20.92680000       1.86170000       6.80847000      -3.51496102      -0.33123696       2.42591885
O       17.34180000      -0.10399000      19.38120000       0.57329992      -1.64221988      -4.59659686
H       16.37160000       0.86054800      20.50560000      -0.10055327      -1.77511833      -1.16922722
H       17.44370000       1.11361000      18.08020000       3.69426578       3.80273520      -1.18023995
O       12.60730000      16.37100000       8.80096000      -4.32809540       1.08879668       2.96137523
H       12.66160000      14.64610000       9.83384000       0.10096878       0.21930145      -0.12222047
H       13.05670000      17.52890000      10.19180000       0.19653899       0.34036266      -0.15443642
O       17.37040000      11.69620000      13.76440000      -0.89375340       2.12694694      -3.03770182
H       17.33850000      13.76380000      13.76720000      -1.26607668      -4.07244550      -0.38944817
H       15.96120000      10.80750000      14.67370000      -0.86388254      -2.85985172       2.51896741
O        3.53653000      14.37380000       8.70985000      -6.06553517      -2.09254867      -0.67770042
H        2.65334000      15.35400000       7.45314000      -0.53394607      -0.54449428       4.42317533
H        4.59275000      13.29780000       7.95141000       4.78771914       2.88625082       1.76327260
O       14.26780000      20.13970000      14.83770000       0.12396436      -3.80957120      -3.10622091
H       13.86880000      22.09170000      14.95090000      -0.98232589       0.72871795       4.70578422
H       13.04130000      19.55510000      13.52210000      -2.48021225       4.61984115       1.84494701
O        0.75054700      11.58960000      19.27790000       2.74077927       1.13609493       4.60518697
H       -1.03325000      11.78510000      19.10400000       0.70554031       3.86261919       1.70706119
H        1.16515000      12.43730000      20.94170000       2.18283980      -3.78365699       3.36401317
O       13.61140000      22.10090000       2.74679000       0.92482628       1.84645191      -5.11563891
H       13.25030000      20.27270000       2.53981000      -0.69296167       3.81691886      -1.43011971
H       14.74950000      22.79990000       1.33223000      -4.23043680       0.29832551       0.73035698
O       10.57240000      13.00030000      13.60650000       4.02482342      -0.66350449      -0.52381175
H       10.76150000      12.58300000      15.42610000      -3.36968623       2.75604328      -0.73837747
H        8.73723000      13.15160000      13.09810000       0.20364519       0.25612635      -0.21082336
O        2.39703000      12.23290000       0.93808400      -0.37915013       2.88559677      -2.84369685
H        1.27654000      11.27000000       2.04257000      -0.49158541      -0.40321330       3.97327648
H        3.10668000      13.56920000       1.73744000      -3.08458386      -1.46785618      -1.47900915
O        9.47188000      18.39470000      17.46820000       3.95846644      -0.81131279       0.51286222
H        9.75234000      19.03410000      15.78320000      -0.40612109      -0.07294117      -0.00983374
H        7.97884000      18.98170000      18.06280000      -0.23322459      -3.33989215      -3.37895536
O       18.17960000       2.29526000      15.48320000      -1.20205151       0.42362146      -5.23165149
H       19.06910000       0.81519700      14.98570000       0.93353058       3.59079713       2.16328010
H       19.22170000       3.67671000      14.61190000      -3.67590272       1.24093646       3.53194667
O        6.94041000      11.33410000       6.50003000       4.12706921      -0.05357376       1.12530672
H        8.46860000      10.91970000       7.52382000      -0.21574189       1.84018230      -2.29411982
H        6.08913000       9.72349000       6.22365000       0.24228742      -2.61047612       0.40981797
O        9.51980000      19.60440000      12.37460000      -1.85883417       3.63230651      -2.25808738
H        9.38218000      21.32090000      11.79020000      -1.41796234       3.42705831       3.22659981
H        8.42520000      18.29220000      11.88270000      -0.15760174      -0.24247270       0.06361134
O       18.40960000      14.21470000       2.62826000      -4.07688896      -0.69458970      -2.25449438
H       19.57220000      15.35740000       3.54124000       1.28103940      -0.83704091      -1.11822456
H       17.99060000      15.07130000       0.99857400      -2.73332675      -2.02089374      -2.87842834
O        7.14334000      19.15860000       3.18180000      -3.43052114      -2.94841625      -2.04841085
H        7.22884000      20.64050000       4.40982000       1.18637709      -1.25994412       4.41558253
H        8.44510000      19.30880000       1.81103000      -4.30993423      -0.39694065      -1.84976266
O       14.42240000      10.18350000       4.90607000      -2.93469757      -0.28863079      -5.18958842
H       13.12880000       8.65807000       5.76300000      -0.41954104      -1.39395949       2.80539962
H       13.60830000      10.43090000       2.45500000       3.25025778      -2.97889461       0.38924648
O        6.56493000       2.61814000      19.93090000       2.05613875      -1.94736478       2.74736561
H        6.13988000       0.89732900      20.53030000       0.81474227      -2.39128108       1.67046953
H        5.48909000       3.86349000      20.79980000       3.93108648      -2.73140207       0.40370902
O       15.10470000       7.08005000      16.05740000       3.31452011       2.54627559      -1.50178470
H       11.69400000       6.42383000      21.89840000      -0.89173520      -0.48331096      -3.58506549
H       15.22730000       5.27520000      15.70210000       1.41019294       3.61585442       1.75829809
O        8.91450000       3.91544000      13.55190000       4.82601715      -0.13461501      -2.35301559
H        8.65896000       5.89594000      14.09560000       2.67616584      -0.67850773       3.81588630
H        8.71449000       2.71009000      15.15540000       0.05687697       0.05196755      -0.04102381
O       15.97900000      15.94920000      14.80170000      -2.56840000       0.09254691       3.36421620
H       14.93470000      15.08720000      15.98020000      -1.99768815      -0.01150775       2.36162036
H       16.38780000      17.76450000      15.21150000      -3.63588928       1.51610655      -2.81546264
O        3.93967000       6.89167000      13.62320000       2.15288414       1.98426675       0.36403537
H        5.32134000       8.15595000      14.01800000       0.79348959       0.25296101      -0.03885566
H        2.46372000       7.55525000      14.66890000      -2.67211581       1.00656829       3.87372734
O       15.60710000       3.38258000       0.08720100      -2.44756677      -2.84636576       3.19897676
H       17.25070000       4.10016000       0.49447300       4.37794087       0.36713857      -0.65281370
H       14.40960000       4.07746000       1.29650000      -3.01931459       3.21416642      -1.14895856
O       15.99710000      19.46180000       6.78768000       0.89928471      -3.84926973       1.56579641
H       14.57010000      20.06660000       5.69607000      -0.17191894       0.27638195      -0.31728060
H       15.70810000      17.80560000       7.20484000       0.04972110      -0.05676875      -0.49717197
O       12.55390000      14.87990000       4.11286000       2.57208664      -0.63300362       2.17259580
H        9.16389000      14.31640000       5.12444000      -0.13197805      -0.01324631       0.01544202
H       13.34810000      13.54620000       5.01155000      -0.34727227       3.67128289       3.01839178
O        8.16374000      13.81510000      20.69530000       2.17640040      -1.34133355       3.92839969
H        7.15015000      14.25380000      19.16010000      -0.04045670       0.23137691       5.89007117
H        7.97636000      15.22470000      21.79170000       0.03221975      -0.13494428       4.51569010
O        3.07132000       7.26373000       5.42267000      -0.44501333      -1.99798149      -3.66788412
H        3.49462000       6.07026000       6.72928000      -4.28327643      -0.23735750      -0.86413223
H        2.27474000       8.59305000       6.54323000      -1.36579973       0.63769807      -1.50633908
O        2.28714000      18.81430000       5.88967000      -0.05597220       4.50672869       0.74103049
H        2.68857000      18.06930000       4.27559000       0.61804377      -1.88964217      -0.56941881
H        0.39520600      19.22380000       5.59305000      -0.12751893      -0.10087676      -0.15842119
O       11.65060000       4.83124000      10.06070000       2.51765396       3.98307322      -2.60667074
H       13.39980000       4.52035000       9.49747000       3.03956546       0.11763801      -3.13189933
H       11.75070000       3.89942000      11.69570000      -2.27272785       3.38593201       3.07083358