192
Lattice="22.4922 0.0 0.0 -1e-06 22.4922 0.0 -1e-06 -1e-06 22.4922" Properties=species:S:1:pos:R:3:REF_forces:R:3 REF_energy=-1101.98208 pbc="T T T"
O       10.85070000      17.98420000       0.99447200      -0.01287310       0.04367600      -0.04981900
H       11.26420000      18.41180000      -0.75078600       0.01488800      -0.01584500       0.00971050
H       11.55590000      16.50750000       1.66738000       0.02581880      -0.02890430       0.01449990
O       21.00580000       3.60178000       7.27777000      -0.01674750       0.00145996       0.02821370
H       22.80500000       4.05516000       7.48973000       0.00771826       0.00406853       0.00675990
H       20.92680000       1.86170000       6.80847000       0.00519739      -0.01268610      -0.01422550
O       17.34180000      -0.10399000      19.38120000      -0.01476060      -0.03428340       0.00737594
H       16.37160000       0.86054800      20.50560000      -0.01811950       0.00814554       0.02666060
H       17.44370000       1.11361000      18.08020000       0.01330150       0.01800270      -0.03824680
O       12.60730000      16.37100000       8.80096000       0.00746612      -0.04576740       0.06817440
H       12.66160000      14.64610000       9.83384000       0.00031483       0.05767800      -0.03984360
H       13.05670000      17.52890000      10.19180000      -0.01201210      -0.01441240      -0.01922430
O       17.37040000      11.69620000      13.76440000      -0.01152130       0.01165880       0.00723188
H       17.33850000      13.76380000      13.76720000      -0.01471200      -0.05519380       0.01611740
H       15.96120000      10.80750000      14.67370000       0.02167010       0.01741560      -0.01422570
O        3.53653000      14.37380000       8.70985000      -0.04123550       0.08259460       0.03792930
H        2.65334000      15.35400000       7.45314000       0.00398476       0.00084364       0.00638031
H        4.59275000      13.29780000       7.95141000       0.05011440      -0.05871910      -0.04667910
O       14.26780000      20.13970000      14.83770000      -0.03979570       0.08449130      -0.02224770
H       13.86880000      22.09170000      14.95090000       0.01774490      -0.06882570      -0.00845750
H       13.04130000      19.55510000      13.52210000       0.01565090       0.01009170       0.02009500
O        0.75054700      11.58960000      19.27790000       0.00155809       0.01825890       0.01506040
H       -1.03325000      11.78510000      19.10400000      -0.00037308      -0.00500489      -0.00926338
H        1.16515000      12.43730000      20.94170000      -0.00486332      -0.02120400      -0.01860060
O       13.61140000      22.10090000       2.74679000       0.02388170      -0.00075601      -0.02434250
H       13.25030000      20.27270000       2.53981000       0.00235831       0.02781150      -0.01654710
H       14.74950000      22.79990000       1.33223000      -0.03178270      -0.03268690       0.04227970
O       10.57240000      13.00030000      13.60650000      -0.00942393      -0.00137372       0.01190080
H       10.76150000      12.58300000      15.42610000      -0.00961149       0.00269530      -0.03437300
H        8.73723000      13.15160000      13.09810000       0.03805060       0.00294699       0.02198830
O        2.39703000      12.23290000       0.93808400      -0.04442270      -0.08012750      -0.02053060
H        1.27654000      11.27000000       2.04257000       0.00716585       0.01644620       0.00313601
H        3.10668000      13.56920000       1.73744000       0.02192480       0.05013970       0.03777640
O        9.47188000      18.39470000      17.46820000       0.06071890      -0.02610480      -0.01450300
H        9.75234000      19.03410000      15.78320000      -0.00946309      -0.00127191      -0.00707125
H        7.97884000      18.98170000      18.06280000      -0.06162460       0.02714860       0.02234850
O       18.17960000       2.29526000      15.48320000       0.01429390       0.05299550      -0.03756810
H       19.06910000       0.81519700      14.98570000       0.01604030      -0.01365850       0.00078165
H       19.22170000       3.67671000      14.61190000      -0.03279130      -0.03651190       0.04015020
O        6.94041000      11.33410000       6.50003000       0.01052630      -0.00349085      -0.01342060
H        8.46860000      10.91970000       7.52382000       0.00142926       0.00207777       0.00668222
H        6.08913000       9.72349000       6.22365000      -0.00478730       0.00743238      -0.00131196
O        9.51980000      19.60440000      12.37460000       0.06273240       0.02322100       0.03113930
H        9.38218000      21.32090000      11.79020000      -0.01899090      -0.01435140      -0.00631798
H        8.42520000      18.29220000      11.88270000      -0.02363960      -0.01656860      -0.01582400
O       18.40960000      14.21470000       2.62826000       0.00609045       0.02504200      -0.00804209
H       19.57220000      15.35740000       3.54124000      -0.01891520      -0.00932524      -0.01753550
H       17.99060000      15.07130000       0.99857400       0.00830763      -0.01179410       0.03947710
O        7.14334000      19.15860000       3.18180000      -0.01384520       0.04084660       0.00624216
H        7.22884000      20.64050000       4.40982000       0.00988158      -0.03570220      -0.02500120
H        8.44510000      19.30880000       1.81103000      -0.01191820      -0.00527383       0.03363650
O       14.42240000      10.18350000       4.90607000      -0.08061240      -0.06584500      -0.06534380
H       13.12880000       8.65807000       5.76300000       0.05412180       0.07525450      -0.04260740
H       13.60830000      10.43090000       2.45500000       0.03386120      -0.01024050       0.11095300
O        6.56493000       2.61814000      19.93090000       0.00093514      -0.00444578       0.00723557
H        6.13988000       0.89732900      20.53030000      -0.00095669       0.01520180      -0.00890425
H        5.48909000       3.86349000      20.79980000       0.01290220      -0.00998617       0.00276395
O       15.10470000       7.08005000      16.05740000       0.02317760      -0.00800076      -0.00236145
H       11.69400000       6.42383000      21.89840000       0.02355560      -0.00015773       0.03601000
H       15.22730000       5.27520000      15.70210000      -0.00213097       0.01888620       0.00771332
O        8.91450000       3.91544000      13.55190000      -0.00499966      -0.06174520       0.07082640
H        8.65896000       5.89594000      14.09560000      -0.00976593       0.00241254       0.00817102
H        8.71449000       2.71009000      15.15540000       0.00429391       0.05274140      -0.06013890
O       15.97900000      15.94920000      14.80170000       0.03513880       0.02910620      -0.01393450
H       14.93470000      15.08720000      15.98020000      -0.01581850       0.00866540       0.00861561
H       16.38780000      17.76450000      15.21150000      -0.02127090      -0.03916950      -0.00454205
O        3.93967000       6.89167000      13.62320000      -0.02683630       0.02705060       0.03975960
H        5.32134000       8.15595000      14.01800000      -0.00236769      -0.02292050      -0.00799770
H        2.46372000       7.55525000      14.66890000       0.02381150      -0.00184783      -0.03652020
O       15.60710000       3.38258000       0.08720100       0.00429609       0.01488620       0.01391770
H       17.25070000       4.10016000       0.49447300      -0.01627200      -0.00097418      -0.00296380
H       14.40960000       4.07746000       1.29650000       0.01719480      -0.00821782      -0.00842226
O       15.99710000      19.46180000       6.78768000      -0.02116790       0.08089880      -0.02582860
H       14.57010000      20.06660000       5.69607000       0.02786090      -0.00755712       0.02136290
H       15.70810000      17.80560000       7.20484000      -0.02680630      -0.06077730       0.01380540
O       12.55390000      14.87990000       4.11286000      -0.08192930       0.00196180      -0.01218710
H        9.16389000      14.31640000       5.12444000       0.06885680       0.00275564      -0.01272980
H       13.34810000      13.54620000       5.01155000       0.00681363      -0.01800310       0.01346820
O        8.16374000      13.81510000      20.69530000       0.02007280      -0.00354623       0.01066940
H        7.15015000      14.25380000      19.16010000       0.01144330       0.00147491      -0.01146940
H        7.97636000      15.22470000      21.79170000      -0.02261040       0.01517460       0.00913305
O        3.07132000       7.26373000       5.42267000      -0.00657002       0.04514020      -0.01658180
H        3.49462000       6.07026000       6.72928000       0.00437271      -0.00975773      -0.00501763
H        2.27474000       8.59305000       6.54323000       0.00303810       0.00212521      -0.00730591
O        2.28714000      18.81430000       5.88967000      -0.03304160       0.00516821      -0.01730510
H        2.68857000      18.06930000       4.27559000       0.00336801       0.00762793       0.00440924
H        0.39520600      19.22380000       5.59305000       0.03187850      -0.00875813      -0.00305384
O       11.65060000       4.83124000      10.06070000       0.04829410       0.00076798       0.00181833
H       13.39980000       4.52035000       9.49747000      -0.02135550       0.00554402       0.00108313
H       11.75070000       3.89942000      11.69570000      -0.02933400       0.01842250      -0.00994791
O        4.41965000       5.06693000       1.28858000       0.02159910       0.04411060      -0.00486293
H        3.80062000       6.53221000       2.34019000       0.00123478      -0.03651510      -0.00672861
H        3.47439000       3.61821000       1.56564000      -0.02181700      -0.01796690       0.01710050
O        4.20394000      14.71300000      16.88360000       0.02009990      -0.00272092       0.00465274
H        2.94354000      16.08100000      16.80820000       0.00635571      -0.00727876       0.00518002
H        3.38643000      13.47930000      17.94320000      -0.01367980      -0.01073520      -0.00619129
O        5.71305000      14.77330000       2.20661000      -0.02811520       0.09563770      -0.05703630
H        6.06696000      16.41910000       2.96574000       0.00431718       0.01612740       0.00019500
H        6.37800000      13.68500000       3.24501000       0.04437890      -0.09046400       0.07958650
O        7.26065000       9.39790000       0.44570000       0.02657630      -0.02133640       0.01519690
H        6.26345000       9.76058000       1.89279000      -0.00992455       0.00276489       0.00367796
H        6.70209000      10.49840000      -0.84217400      -0.00445238       0.01191560      -0.01074480
O        3.53735000       2.60035000      16.02180000      -0.01879020       0.01518240      -0.02467820
H        3.96613000       4.27925000      15.30090000       0.00131533       0.00081257      -0.00724648
H        4.57866000       2.39886000      17.45260000       0.02107180      -0.00504984       0.02335110
O        3.05101000       4.72445000       9.08415000       0.02403490      -0.03042440       0.01974200
H        3.49087000       6.24967000      10.07210000      -0.01047260      -0.00477183       0.01415090
H        4.45497000       3.50653000       9.25592000      -0.01919540       0.01446950       0.00541551
O       18.38640000       4.69908000      11.05680000       0.09428420      -0.25711400      -0.07218910
H       17.75140000       6.05747000      11.51510000      -0.07019080       0.21963500       0.06806440
H       19.46430000       4.46954000       9.45010000      -0.04702640       0.16286300      -0.13924500
O       10.90780000      10.53900000       9.22395000       0.01521710      -0.11907900      -0.02425320
H       10.55700000      10.85130000      10.92850000      -0.00520041       0.02140450       0.04353380
H       11.11660000       8.33864000       9.56893000      -0.00854943       0.08224740      -0.01492800
O        6.09883000      22.72370000      11.25810000      -0.04414720      -0.08841140      -0.00271315
H        5.61247000      23.97660000      12.42230000      -0.00520956       0.01136200       0.02492140
H        5.17347000      20.91070000      11.74970000       0.03366910       0.08481800      -0.01352060
O       14.72030000       1.16477000      10.57460000      -0.08055980      -0.17263800      -0.15237600
H       15.96400000       1.96071000      11.06890000       0.16647400       0.12623000       0.09831300
H       16.32360000       0.00849400       9.07741000      -0.08723650       0.02602560       0.05240420
O        6.60385000      15.59660000      12.55530000       0.00733688       0.00303401      -0.00831190
H        6.27935000      15.31660000      14.33710000      -0.01509410      -0.00361031      -0.00787334
H        5.42163000      14.75450000      11.43040000      -0.00828486       0.01158350       0.00851365
O       10.43270000       4.19796000       5.61393000       0.00225215       0.03196950      -0.08762720
H       10.75100000       3.72801000       7.28584000      -0.00494382      -0.00839170       0.04319900
H        8.74522000       3.98083000       5.01485000      -0.00702458      -0.01452920       0.01742260
O       11.60470000       6.99102000       1.60334000       0.00618887      -0.02579730      -0.04799210
H       11.10330000       5.62798000       2.88032000       0.00567527       0.00520291       0.00327459
H       10.15230000       8.09712000       1.35911000      -0.02700570       0.01867110       0.00685990
O       17.24020000      12.88440000       9.11143000      -0.00928678      -0.02773110       0.03590000
H       16.97950000      11.95030000      10.91450000       0.01360750       0.02548450      -0.04574110
H       17.15460000      11.59110000       7.86293000      -0.00311521      -0.00226621      -0.00217883
O       17.54030000      10.37520000      20.28550000      -0.00627266      -0.04174870      -0.05103030
H       17.41820000       8.37027000      19.02860000      -0.01339340       0.07201540       0.02748110
H       17.94790000      10.06180000      22.07010000       0.00340234      -0.01048810      -0.00687742
O       19.94860000      19.30220000      21.89530000      -0.00994600       0.01505140      -0.02399520
H       18.34780000      16.41590000      20.11120000       0.13448900       0.11671000      -0.01171060
H       19.59720000      21.06120000      21.20830000       0.01513370      -0.05341620       0.01927460
O        5.04555000      20.22830000      20.16330000      -0.02332380      -0.01739240       0.05413260
H        4.76796000      19.99630000      22.07980000       0.00917416       0.00291740      -0.05215840
H        3.44085000      19.42460000      19.40980000       0.02099060       0.00889709       0.01151730
O        6.97349000       0.24803100       6.53741000      -0.03922500      -0.00768818      -0.27238100
H        5.21929000      -0.27595100       6.24927000       0.00918476       0.00472655      -0.00215050
H        6.97882000       0.31002600       8.06921000       0.01599560       0.00908782       0.26947800
O       12.89330000      13.22870000      18.43690000       0.06241420      -0.02607410      -0.03160510
H       11.71410000      13.63580000      19.60720000      -0.04671180       0.02183940       0.03411740
H       14.35330000      12.67800000      19.41370000      -0.01463490      -0.01426160      -0.01135280
O       21.79930000      11.35200000       5.23275000      -0.02355080       0.01056920      -0.02580900
H       20.15490000      11.78860000       4.45187000       0.02320570      -0.00543635       0.01500730
H       21.74600000      11.29970000       7.06685000       0.00951632      -0.00334774       0.00964174
O       21.89250000       3.42706000      20.65420000       0.05593620       0.00418150      -0.10479000
H       22.84630000       4.38423000      18.73770000      -0.04511330      -0.03664140       0.09300620
H       21.11710000       4.58985000      21.71640000      -0.00625631       0.03937380       0.00426934
O        1.17194000      19.34050000      10.75610000       0.08195590       0.04860810       0.01438200
H        2.48473000      19.38440000       9.41184000      -0.03168750      -0.00802358       0.01892780
H       -0.24912000      18.53810000      10.12480000      -0.03974540      -0.02962820      -0.02191800
O       17.21940000      15.29380000      20.44400000      -0.08460280      -0.14863700      -0.00453213
H       17.81390000      13.39420000      19.93320000      -0.01621380       0.02026370       0.00874140
H       15.82560000      16.16160000      19.30930000      -0.03135870       0.00867034       0.01276120
O       22.36270000       0.66353200       2.35101000      -0.01349530       0.02999510      -0.00674750
H       20.50850000       0.54134300       1.98945000       0.04471550      -0.00563748       0.00007533
H       23.09270000       1.79830000       1.02788000      -0.02589820      -0.02473880       0.01356090
O       22.33170000      10.28540000      14.45690000       0.00670063       0.00399649       0.00369095
H       20.46000000      10.42940000      14.74160000       0.03517730       0.02274090      -0.01945550
H       23.34770000      11.77340000      13.80310000      -0.04759190      -0.03659420       0.01665610
O        1.49937000      10.25690000       9.39843000       0.00786767       0.00165113       0.01244210
H       -2.65471000       3.42942000      10.26410000       0.04103560      -0.09378240       0.11770100
H        2.14100000      11.88630000      10.14810000      -0.01947130      -0.04399880      -0.02434660
O       20.05300000      19.07860000       4.29808000       0.00664728      -0.00456876      -0.00999280
H       18.74240000      19.61390000       5.46597000      -0.00600860      -0.00868234      -0.02396480
H       19.49160000      18.88500000       2.41841000       0.01670960       0.02161660       0.01131810
O       -0.07610200      22.25480000      15.04510000      -0.03431020       0.00994500       0.07779330
H        0.14572700      21.86250000      13.42560000       0.01796660      -0.04000500      -0.09227170
H        1.20882000      23.50740000      15.36190000       0.01444100       0.01283840       0.01114180
O       19.70900000      17.34820000       9.20629000       0.00791130      -0.04143090      -0.05477310
H       20.02820000      16.18770000       7.56193000      -0.01830560       0.04416080       0.07025810
H       18.48180000      18.59860000       8.69745000       0.01012530      -0.01192360       0.00503536
O        8.33133000       8.41579000      14.64020000       0.03453800      -0.01068290      -0.01003830
H       10.40660000      13.55440000      22.53080000      -0.01597680      -0.00503636      -0.01662550
H       10.17670000       8.57578000      14.38720000      -0.02785470       0.00781171       0.01039470
O       18.62020000       8.93859000       2.25895000      -0.02296660      -0.00975322      -0.00904428
H       20.03800000       7.87679000       2.51778000       0.00333859      -0.00382742       0.01674150
H       17.15440000       8.73707000       3.39192000       0.01959260       0.00128928       0.00162497
O       14.20400000      18.28370000      19.27570000       0.07914340       0.03446920       0.03558100
H       16.05540000      19.93180000      19.21440000      -0.05507940      -0.01967550       0.00128555
H       12.90090000      18.83970000      18.20340000      -0.01206100       0.00299980      -0.02301410
O       10.67960000       6.20783000      18.93990000      -0.01956520      -0.03846730       0.09070300
H        9.89940000       6.26987000      20.76100000      -0.02444960       0.00602482      -0.07257930
H       10.10560000       4.39780000      18.73990000       0.01097100       0.03030510      -0.00811341
O        1.13766000      18.12510000      17.99900000      -0.06562010       0.04335140       0.02445630
H       -0.52167500      18.23840000      19.11700000       0.03957080      -0.00999080      -0.00053747
H        0.76794500      19.79300000      17.21780000       0.00851970      -0.01429180      -0.01554420
192
Lattice="24.06472 0.0 0.0 -1e-06 24.06472 0.0 -1e-06 -1e-06 24.06472" Properties=species:S:1:pos:R:3:REF_forces:R:3 REF_energy=-1102.60604 pbc="T T T"
O        5.01566000       1.81683000       2.78860000      -0.12296900      -0.00024611       0.06796860
H        6.03289000       2.41475000       1.64574000       0.09080760       0.04417350      -0.08602730
H        3.55386000       3.10105000       2.64666000       0.02856040      -0.03236980       0.00558735
O       15.69910000       9.38969000       5.24215000       0.00077938      -0.00980550      -0.05392210
H       15.92950000       9.33549000       3.33053000      -0.00983150      -0.00145702       0.03376300
H       17.40910000       9.20088000       5.80203000       0.02116260       0.01779170       0.01717360
O       14.76460000       0.89163700      22.38940000       0.07047660       0.05577610       0.00425773
H       13.95160000       0.88987500      23.91990000      -0.02522180      -0.00049937       0.04963130
H       13.82470000      -0.02540200      21.32530000      -0.04092400      -0.04903950      -0.05020320
O       22.51800000       1.76908000      12.23790000       0.05242930       0.01260730       0.02083930
H       21.18180000       1.50057000      11.17900000      -0.04466280      -0.00239274      -0.03392130
H       21.90560000       1.37626000      13.86360000      -0.00616200      -0.00928195       0.01146450
O       22.85050000      16.60140000      12.88920000       0.07036380       0.08590700       0.05291810
H       24.28360000      15.50220000      13.46540000      -0.02711330      -0.00312541       0.00105562
H       23.84540000      18.58300000      13.96230000      -0.02919060      -0.08069570      -0.04973700
O       22.73680000      22.78010000       6.57973000      -0.05505230       0.02184360       0.01770970
H       21.72650000      24.10180000       5.58919000       0.02402920      -0.02299320       0.02300030
H       21.64520000      22.37810000       8.17012000       0.02975870       0.00360334      -0.04100330
O       14.81380000      18.11470000       8.83943000      -0.02526080      -0.00793558      -0.03903170
H       13.75240000      16.43690000       5.91294000      -0.00760163      -0.03601420       0.04689730
H       14.23700000      16.80630000       9.99420000       0.01131040       0.01208420      -0.00884771
O        6.37879000      24.07630000      18.26380000      -0.05489440      -0.01867780      -0.03876760
H        5.96175000      22.26320000      18.68280000       0.01303830       0.02695190      -0.00099703
H        5.02762000      24.42030000      16.91880000       0.04107090      -0.00538532       0.03441570
O       20.98280000       7.77878000      11.60430000       0.05652080       0.00435440      -0.03343910
H       22.32480000       7.86987000      10.21440000      -0.02902380       0.01592870       0.03934000
H       20.17570000       6.40008000      10.85150000      -0.03322010      -0.03013930      -0.00227720
O       23.06840000       5.16310000      19.95260000      -0.05162620      -0.12511100      -0.07241660
H       21.27270000       5.13312000      20.85010000       0.02440840       0.00012509      -0.02622930
H       23.81360000       3.01798000      19.89080000       0.00630276       0.05789150       0.02703290
O        5.45018000      14.98650000      17.38690000      -0.00722885       0.00316910      -0.03605060
H        6.13812000      14.49030000      15.70280000      -0.00458860       0.02259450       0.03096990
H        6.09632000      13.77220000      18.48900000       0.01518160      -0.02267750       0.01917060
O        2.80939000       8.08761000      22.12780000       0.03794720      -0.05648420      -0.03079990
H        4.64907000       7.25943000      22.10730000      -0.06198690       0.02674980      -0.01174390
H        1.84176000       7.17822000      20.70110000       0.03514930       0.03460290       0.03450650
O       15.46180000      15.02050000      12.75950000       0.04382480       0.02199690       0.08135000
H       14.89250000      15.96130000      14.35860000      -0.00251390      -0.02181800      -0.04053080
H       17.32870000      14.84590000      13.33410000      -0.05151550      -0.01200670      -0.02873760
O       16.32520000       8.19343000      24.29690000       0.00883585      -0.03510990      -0.04767490
H       16.36280000       6.93348000      22.75440000       0.00112303       0.04544820       0.04657820
H       17.68790000       9.37459000      23.91190000      -0.00850792       0.00306882      -0.00428969
O       18.35220000      16.08960000       2.85170000       0.05087020       0.04228240      -0.00465621
H       19.68010000      17.42970000       3.16782000      -0.01438230      -0.02103330      -0.01701490
H       17.87260000      15.83420000       4.50826000      -0.01652050      -0.01516370       0.04746740
O       12.43860000      17.90660000      16.48380000       0.02540060       0.01816660      -0.04937370
H       12.00110000      17.81430000      18.16150000      -0.01446000      -0.00864219       0.04746120
H       13.55450000      19.36520000      16.38290000      -0.00458104      -0.01074680       0.00084516
O        6.91905000       7.84184000       5.47316000       0.04881100      -0.03548270       0.01070240
H        8.00252000       7.34025000       4.07476000      -0.01607200       0.00756890      -0.02415060
H        7.94464000       6.68383000       6.57685000      -0.03054680       0.02343680       0.00517032
O       13.24620000      14.12960000       5.81133000      -0.01071290       0.02093800      -0.04430860
H       11.19460000      13.58770000       5.63032000       0.06617620       0.01752150      -0.01667810
H       14.51360000      13.43010000       4.43755000      -0.05301670       0.00584128       0.04369850
O       17.79180000       3.62453000      10.50730000      -0.08320350      -0.01811800       0.01328900
H       16.63850000       3.34968000      12.19760000       0.04392740       0.01145720      -0.07654810
H       16.48640000       3.49978000       8.96720000       0.04841340       0.00978730       0.05107490
O       20.31930000      23.40770000      22.94090000      -0.05626830       0.15302500      -0.07613810
H       20.84240000      22.29800000      23.96010000       0.05881050      -0.14095500       0.10271700
H       19.73590000      24.65560000      24.26900000       0.00927792      -0.01017830      -0.03355600
O        0.81891700      24.39380000      20.02820000      -0.08624510       0.04443540       0.00853432
H        1.64877000      22.92190000      20.45570000       0.04299300      -0.03892380       0.00980970
H       -0.84254500      24.18500000      21.00990000       0.02224860      -0.00571710      -0.00518085
O        4.80143000      19.57570000      20.20680000      -0.04218070       0.13012000       0.05823740
H        4.99546000      19.64490000      22.02940000      -0.00603203       0.00477505      -0.01473410
H        5.27664000      18.06960000      19.81890000       0.04235840      -0.13816100      -0.05041150
O        9.69623000      19.63680000       1.48818000      -0.05091370       0.04533490       0.02711420
H       10.22510000      20.37500000       3.09052000      -0.00245380      -0.00532928      -0.01307820
H       11.02880000      18.60470000       1.17617000       0.05239530      -0.04167180      -0.02414250
O        2.36643000      20.34050000      15.22760000      -0.01852660       0.01040190       0.00426432
H        3.88691000      19.44720000      15.43450000       0.01537100      -0.02311290       0.00641655
H        2.95741000      22.01600000      14.74370000      -0.00974743      -0.00006762      -0.01602270
O       20.62200000      12.78320000      18.29820000      -0.00227624      -0.00297922      -0.06926430
H       19.31720000      11.75610000      17.26350000       0.03274940       0.02332030       0.01930440
H       21.97950000      13.26630000      16.86070000      -0.02934970      -0.02315560       0.04411030
O       17.73110000      10.27910000      14.38200000      -0.02265440      -0.00613978       0.01165840
H       15.96700000       9.66089000      14.66830000       0.04640700      -0.00179385      -0.00552395
H       18.91930000       9.01196000      13.64940000      -0.02481720       0.01581280       0.00348142
O       19.29830000      20.86390000      10.04790000       0.02129090      -0.00523816       0.01688680
H       18.57770000      19.72670000      11.33020000      -0.00122724       0.01574690      -0.02239170
H       18.00390000      21.82230000       9.27549000      -0.02003490      -0.00667356       0.00188740
O        7.27811000      17.24380000       8.37700000      -0.05359780       0.04208380       0.01068170
H        5.44880000      16.90870000       7.91695000       0.04338340       0.01885490       0.00544412
H        8.15350000      15.80150000       8.09266000       0.03190140      -0.05397630      -0.01704300
O        0.87573500      12.51700000      15.31090000      -0.02833420      -0.00035517      -0.03452880
H        0.78784800      10.32880000      15.33020000      -0.00439126      -0.01249220      -0.01419520
H        2.00962000      12.67070000      16.60720000       0.03486110       0.01728490       0.03909680
O       13.57700000       1.42372000      12.47700000       0.01385300      -0.01941770       0.00160519
H       12.31610000       2.40249000      11.69040000      -0.02480130       0.01351570       0.00077252
H       13.63070000      -0.01421700      11.37260000       0.00481349      -0.00505666       0.00262089