192
Lattice="25.24593 0.0 0.0 -1e-06 25.24593 0.0 -1e-06 -1e-06 25.24593" Properties=species:S:1:pos:R:3:REF_forces:R:3 REF_energy=-1102.2091 pbc="T T T"
O       12.18950000       0.10654900       5.11497000       0.07384310       0.06259980      -0.04220420
H       14.20840000       0.76479100       4.43777000      -0.08599500      -0.03252980       0.03272380
H       11.21940000       1.67045000       4.62527000       0.01903250      -0.03078050       0.00769896
O       23.33080000       0.41105700      15.71860000      -0.00202760      -0.02342310       0.01942110
H       23.41670000       1.60186000      14.43850000       0.00855458       0.02564270      -0.02705960
H       21.55490000       0.37653500      16.02540000      -0.00643609      -0.00407112       0.00702105
O       12.91340000      22.23020000      19.42970000       0.02516560       0.08257290       0.08681350
H       12.95150000      20.97980000      18.37410000      -0.01860990      -0.09929850      -0.09607150
H       14.77230000      22.06730000      19.87100000      -0.00327328       0.01697100       0.02273000
O       24.29490000      11.92750000      22.83490000      -0.02759870      -0.00478625       0.00135059
H       24.14490000      10.96400000      -0.85727200      -0.00263017       0.00714388      -0.00935997
H       22.60780000      11.58730000      22.00270000       0.03028810       0.00127222       0.01234100
O       15.99210000      11.95870000      24.66520000       0.09341410      -0.13357700       0.04217090
H       15.30230000      10.87950000      23.44390000      -0.00661507      -0.03853640      -0.00921221
H       15.15430000      13.24840000      24.28830000      -0.09470770       0.16824100      -0.03854900
O        5.04387000      13.81340000       2.58676000       0.02853650      -0.01324650      -0.03872640
H        5.71300000      12.77630000       1.16412000      -0.00341150       0.01854900       0.01764020
H        3.77701000      12.71890000       3.17598000      -0.02303970      -0.00534022       0.01403550
O       22.44140000      17.53750000      20.53030000       0.04666290       0.00981857       0.01846970
H       23.42140000      17.08590000      22.14810000      -0.01884010       0.00249623      -0.06444720
H       23.63930000      18.50560000      19.34540000      -0.02496750      -0.02832750       0.03907080
O        4.06693000       8.80638000       9.48071000      -0.00825769      -0.03837900       0.02627940
H        3.30317000       8.25478000      11.18170000       0.01931510       0.01621640      -0.04340290
H        4.67693000       7.22427000       8.67815000      -0.00318376       0.02747580       0.01586390
O        4.74511000      14.26260000       8.72037000       0.06294460       0.10770600      -0.06844090
H        6.45192000      14.90810000       7.52058000      -0.07801580      -0.05703250       0.06043940
H        4.47331000      12.69790000       9.44435000       0.01903370      -0.05150420       0.00493461
O       10.90530000       6.77706000      20.19730000       0.06943730      -0.02840550      -0.04083580
H       10.28950000       6.76116000      21.75630000      -0.03347600       0.00616729       0.09080770
H        9.60222000       7.34334000      19.17240000      -0.03022510       0.02259260      -0.04444120
O        3.79272000       6.06344000      14.51600000       0.10304100       0.20393700       0.00570652
H        3.88547000       4.64864000      13.87690000       0.03377050      -0.21010000      -0.10312500
H        2.45906000       5.88292000      15.40570000      -0.13324700       0.00032816       0.09897880
O       16.20180000      11.12420000       9.21497000      -0.01800480       0.00261431      -0.04282040
H       15.79270000      11.72600000       7.36506000       0.03449530      -0.01642010       0.06323480
H       17.97960000      10.74310000       9.64445000      -0.01987380       0.01975340      -0.02261780
O       11.55010000      20.17440000       3.01857000      -0.08859740      -0.03539560      -0.06078290
H       12.00110000      21.65760000       3.79706000       0.01693290       0.05331960       0.02345720
H        9.62308000      20.56380000       2.37583000       0.07552710      -0.01860630       0.03014170
O       23.91680000      20.36100000       0.19077100       0.01113870      -0.00408474       0.01416670
H       -0.22220000      21.80000000      -0.22626200      -0.02222790      -0.02307660      -0.00363183
H       23.45770000      19.23280000      24.05130000       0.00573381       0.03591470       0.00023151
O        9.57989000       1.69302000      22.05670000      -0.03027260      -0.09028440       0.02614880
H       10.14830000       3.08597000      21.22980000       0.02852500       0.04541100      -0.04457210
H        9.85572000       0.05475500      21.07800000      -0.00159332       0.04797870       0.01827290
O        0.92375200       1.00673000       5.96401000       0.08932760      -0.16005400       0.30884500
H        1.99304000       0.01433800       5.13917000       0.07258520      -0.06485030      -0.04048880
H        0.35483000       1.83084000       4.89927000      -0.15920200       0.22028400      -0.26580600
O        2.30196000       7.71108000      23.78680000       0.02594510      -0.23007600       0.09776150
H        2.10292000       9.25208000      23.68370000      -0.02877580       0.22740000      -0.02995100
H        2.01319000       7.47478000       0.50864800       0.00610194      -0.00082938      -0.07136100
O       18.41680000       1.94267000      21.15000000      -0.00141822       0.03871900      -0.08752300
H       17.24100000       0.58913400      21.44050000       0.00751898      -0.01124620      -0.00486010
H       18.35700000       2.32286000      18.74860000      -0.01048110      -0.02989330       0.08733810
O        8.95978000       9.27680000       4.48311000       0.18323600      -0.00453444       0.14755700
H        8.75811000      10.92610000       5.22931000       0.02358620       0.00128136       0.01776420
H        7.72308000       9.48513000       3.59500000      -0.20299400       0.00675256      -0.16724600
O        7.15635000       0.73628800      14.88320000      -0.10573200      -0.04135030      -0.00177476
H        8.76974000       1.18478000      14.69890000       0.07197630       0.02864490       0.00942698
H        6.20949000       0.90747800      16.40790000       0.01977360       0.00679686       0.00651897
O       16.19570000      20.73520000      11.25660000       0.27171500      -0.06396540       0.12289000
H       15.83820000      19.22540000      12.00530000      -0.00562235      -0.04744560       0.02458970
H       14.97650000      21.25160000      10.56920000      -0.26503700       0.10989500      -0.14989400
O        0.46268900      10.41700000      13.03920000      -0.06622510       0.01049850      -0.00299215
H       24.13000000      10.54240000      11.96080000       0.04215950      -0.00559413       0.00879836
H       24.75390000      10.53600000      14.62130000       0.01572530      -0.01048830      -0.00725386
O        9.20613000      19.39170000      16.47170000      -0.02388610      -0.01103910      -0.00871830
H        8.46691000      21.06790000      16.21630000       0.00577349      -0.01327200      -0.00134320
H        7.94377000      18.24590000      15.67500000       0.01624930       0.02440200       0.00605501
O        6.97243000       4.28926000       7.19869000      -0.03933940      -0.01472280       0.01103960
H        7.13214000       4.38875000       5.42563000       0.01325230       0.00843471      -0.01408750
H        5.26688000       3.52330000       7.35286000       0.02550040       0.00230871       0.00508714
O       18.45250000       2.98532000      15.96320000       0.05263390       0.03573090       0.08801450
H       19.64350000       4.44171000      16.59440000      -0.04145980      -0.03881280      -0.05479030
H       17.80480000       2.75518000      14.32470000      -0.00496977       0.01817900      -0.03137860
O        7.40536000       4.11176000       1.27380000      -0.01657760      -0.03546580      -0.06838140
H        7.06985000       3.21523000      -1.07790000       0.01471220       0.03392330       0.09764740
H        5.87469000       4.46809000       2.27256000       0.00404323      -0.00659333      -0.03528800
O        0.59903300       9.48731000       5.13593000       0.00542259       0.00406400      -0.01206930
H       -0.84514800      10.64100000       4.67759000       0.05072200      -0.00301761       0.01720720
H        2.24677000      10.12780000       5.87229000      -0.05562340       0.00039299      -0.00627752
O       10.11820000      20.20650000       9.56988000      -0.00807697      -0.05692870      -0.06116590
H        9.78981000      20.80270000       7.85866000      -0.00346832      -0.02063280       0.00276304
H       10.48960000      21.73180000      10.17700000       0.01768900       0.08406250       0.05551440
O       19.82660000       9.36563000      15.36270000       0.02860640      -0.01677010      -0.05757570
H       18.68580000       9.73935000      13.99210000       0.00405856       0.00334848       0.00801774
H       18.97730000       9.67673000      16.82570000      -0.02846590       0.01493150       0.05052680
O        0.11804400       5.03885000      18.91410000       0.01166620       0.03078240       0.00401054
H        0.90271100       6.12432000      20.16020000       0.00135159       0.01368080      -0.01016510
H       25.08810000       3.74960000      20.07740000      -0.01478170      -0.04099880       0.00773879
O       15.52680000       6.33523000      23.20680000       0.17075900      -0.07461960       0.07662640
H       14.22270000       6.83440000      22.49980000      -0.18538900       0.07972730      -0.09281450
H       15.87610000       4.90684000      22.10110000       0.01997310      -0.00746089       0.01098960
O       19.89630000      10.18980000      20.82330000      -0.08439970      -0.06081570       0.06367390
H       19.45300000       8.21801000      21.17870000       0.02502820       0.07171900      -0.01683500
H       18.51630000      10.80840000      22.15970000       0.05433660      -0.00974277      -0.04668730
O       17.87840000      15.31110000      15.14890000      -0.08246300       0.01468020       0.04431130
H       18.77580000      14.48750000      16.53790000      -0.00961328       0.01048240      -0.01122290
H       15.84010000      15.61320000      15.94270000       0.10046100      -0.02615530      -0.03200790
O        4.60544000      24.27760000      22.56190000       0.01099970      -0.00708182       0.01888750
H        5.69319000       0.01823800      23.61980000       0.00572544       0.01813270      -0.00958601
H        4.65792000      22.88900000      23.73220000      -0.00806296      -0.01852200      -0.00526237
O        7.73856000       9.79246000      23.89530000      -0.01389450      -0.04850180       0.03828690
H        6.76902000       8.17413000      23.86390000       0.01380660       0.02631760       0.01293400
H        7.49662000      10.26670000      22.23830000      -0.00614337       0.02746400      -0.04850790
O        5.73798000      19.08760000      11.88520000      -0.06128880      -0.06283260      -0.01802040
H        7.23134000      18.90210000      10.92510000       0.01507120       0.00943962      -0.00944202
H        4.59553000      17.66410000      11.01700000       0.03633980       0.04912000       0.03442890
O       17.62710000      13.96330000       4.02014000      -0.00995332       0.00933407      -0.00281537
H       18.05550000      15.77390000       4.55832000      -0.01027230      -0.03700250      -0.03987310
H       17.16090000      13.46680000       2.22674000       0.01574550       0.02689760       0.04430270
O       22.68050000      14.17530000       3.41504000       0.17086200       0.12452100      -0.09866180
H       21.20270000      13.55210000       3.47922000      -0.16325300      -0.05941440       0.00516816
H       22.63200000      15.50020000       1.51976000       0.00138947      -0.07138820       0.09379850
O       17.02440000       6.25156000       7.35802000       0.06077400      -0.20660700      -0.01572660
H       16.63100000       7.76449000       7.41169000      -0.05668850       0.21415100       0.02443270
H       16.88910000       5.92892000       5.59476000      -0.01263660      -0.01443210      -0.01271900
O       22.57810000      22.08270000       8.50952000       0.05450800      -0.02326400      -0.01960610
H       23.78310000      23.03930000       7.44333000      -0.03050340       0.00412243       0.01195060
H       20.89220000      22.75570000       8.77033000       0.00404026       0.00879890      -0.01004670
O       17.85380000      21.41330000      21.78500000      -0.03283620      -0.04812630      -0.02470020
H       17.81330000      19.65100000      20.98460000       0.00911312       0.04792470       0.02147040
H       13.68740000      19.52740000      24.39300000       0.03081030      -0.00938230      -0.03609200
O        8.58125000      17.07230000      21.60010000       0.02134600      -0.05053890       0.09751850
H        9.10386000      18.26940000      20.55160000       0.00693851       0.06574460      -0.08159610
H        7.07569000      16.17080000      21.34260000      -0.01924400      -0.00994848      -0.01998110
O        0.79319200      13.71040000      17.65080000       0.00614131      -0.00322177      -0.03360920
H        0.72430900      13.50250000      15.76990000       0.00198911       0.00549127       0.03714450
H        0.04029500      12.24790000      18.41420000      -0.00198831       0.00270674      -0.00143002
O       23.35680000      18.41510000      12.61690000       0.03728410       0.01800200      -0.05394160
H       24.66540000      20.66130000      10.49280000      -0.05936600      -0.04012380       0.05043910
H       22.49770000      19.08130000      14.05530000       0.00165509       0.01747180       0.00098822
O       11.71250000       8.25084000      12.28690000      -0.08296120      -0.10750900       0.07684780
H       10.90640000       7.01205000      11.16000000      -0.00484747       0.00707497       0.02198260
H       12.52040000       9.06489000      11.15220000       0.08968710       0.10146100      -0.10281600
O        5.96572000      12.88080000      19.42820000       0.10347700      -0.05762390       0.10947500
H        7.09322000      13.75070000      18.52820000       0.04423090       0.03516110      -0.05650550
H        4.41197000      13.04310000      19.01470000      -0.14976200       0.02309530      -0.05380790
O       13.85920000      17.55960000      23.96020000       0.02158700       0.08066980       0.02056960
H       12.21550000      17.50840000      23.21070000      -0.03579570      -0.02800660       0.00180123
H       14.07590000      17.47270000       0.54219000      -0.01429810      -0.03112300       0.01297990
O        6.15520000      19.51640000       0.50115400      -0.01717490       0.03331340       0.03480270
H        5.04338000      18.14940000       0.71129700      -0.01774120      -0.02143840       0.01409980
H        7.09205000      19.02230000      24.37490000       0.03336360      -0.01326790      -0.04677840
O        8.42602000       8.72537000      16.41350000      -0.00579214      -0.02491970      -0.05659590
H        9.80907000       9.05943000      15.05530000      -0.04249180      -0.01494430       0.03487080
H        7.08558000       7.52688000      15.60560000       0.03905590       0.03993910       0.01877310
O       22.22840000       5.66879000       0.13173700       0.00941620      -0.01002670       0.00905288
H       21.94580000       4.83910000       1.78702000      -0.01509250       0.00577781      -0.02418450
H       21.34810000       4.86578000      23.98090000      -0.00318249      -0.00468740       0.01862140
O        9.79018000       1.53373000      11.08680000       0.06185810       0.03418640      -0.09193520
H       10.10590000       1.93991000       8.91394000      -0.01612740      -0.01846440       0.10612700
H       11.41440000       2.23665000      11.83210000      -0.02961620      -0.01766150      -0.02386520
O       15.23630000       3.38955000      11.68820000      -0.03468320       0.02199970       0.12998000
H       14.65920000       5.12150000      12.19880000       0.00947760      -0.03103260       0.00350177
H       15.43490000       3.68841000      10.08010000       0.02600410       0.01200380      -0.12804000
O       18.42950000       0.78652800       3.87563000      -0.08963850       0.00398700      -0.08595140
H       19.12620000      24.52460000       3.39072000       0.01804330      -0.04688120      -0.01794170
H       19.22810000       1.29508000       5.21674000       0.06259820       0.03819370       0.10339700
O       20.93290000      13.20820000      10.28570000       0.05066070      -0.17319100       0.09140530
H       20.20510000      14.18950000       9.29470000      -0.08617490       0.13333900      -0.11974600
H       22.18320000      13.95140000      11.19120000       0.03935430       0.04286260       0.02973210
O       21.84110000       4.79078000       5.50151000      -0.05168820      -0.12852600       0.01376810
H       20.29170000       5.34957000       6.17707000      -0.02116950       0.00079934       0.01699900
H       22.58850000       6.18738000       5.17936000       0.08532930       0.13298100      -0.02533210
O       10.92520000      14.87980000       5.41855000      -0.03819340      -0.02270870      -0.12235400
H       11.50820000      15.47600000       3.62793000      -0.02968110      -0.02290130       0.05979730
H       12.08610000      15.67860000       6.32679000       0.06166760       0.04255740       0.06617000
O       13.24500000       5.81399000       3.25365000       0.00303395       0.00934807       0.02599220
H       13.04710000       7.64709000       3.13716000      -0.00529456      -0.02448050      -0.00995269
H       13.41410000       5.01199000       1.66153000       0.00362447       0.01073210      -0.01540790
O       10.62200000      14.84980000      10.91570000       0.00552195       0.01912730       0.00554498
H       10.58690000      16.65080000      11.20590000       0.01140140       0.00150387      -0.00925134
H        8.88128000      14.57560000      11.21690000      -0.01792490      -0.01872050       0.00084506
O       19.45330000      25.10520000      10.57320000      -0.00133613      -0.01845090       0.02820800
H       20.92430000      -1.09909000      11.20080000      -0.01521480       0.02135550       0.00596626
H       18.08070000      24.42740000      11.63810000       0.01455000       0.00628473      -0.01663550
O        0.92320500       1.27898000       0.06438700      -0.11818600       0.07855030       0.15718800
H        1.72192000       0.74992900      23.96910000       0.03995610      -0.01870290      -0.11437400
H       -0.70259500       2.59095000       0.37461600       0.07477290      -0.05356370      -0.04640770
O        1.14162000      21.85590000      19.33320000      -0.03960220       0.03390350       0.05728650
H        2.00848000      22.23610000      20.93130000       0.00939997      -0.01199930      -0.02719090
H       -0.40746800      22.82430000      19.96890000       0.02370300      -0.02459190      -0.03716310
O       19.54870000      19.30270000       3.77530000       0.09693050      -0.00942826      -0.04203530
H       21.64650000      19.22020000       2.93124000      -0.09605580       0.00968528       0.02218800
H       20.18840000      19.56450000       5.42732000      -0.00307399       0.00445848       0.02447980
O        5.44670000      23.57900000       4.07394000       0.04081260       0.03762470      -0.06006670
H        6.69299000       0.31064800       3.20861000      -0.05416780      -0.09343700       0.02439380
H        5.26105000      22.08890000       2.75677000       0.01739200       0.05973440       0.03391520
O       12.80430000      13.85040000      15.72620000      -0.00551683       0.00044343       0.05262200
H       12.01800000      15.15160000      16.71070000      -0.00975150      -0.00796713       0.02170840
H       12.83850000      14.86150000      14.32130000       0.00339452       0.00784072      -0.06904740
192
Lattice="22.7394 0.0 0.0 -1e-06 22.7394 0.0 -1e-06 -1e-06 22.7394" Properties=species:S:1:pos:R:3:REF_forces:R:3 REF_energy=-1102.60291 pbc="T T T"
O        6.34971000      12.59730000      16.40550000       0.00234590       0.00475571      -0.03248650
H        5.07420000      13.86710000      16.43360000      -0.00514289       0.01145780      -0.01321780
H        6.06085000      11.84480000      17.99810000       0.01047240      -0.02463770       0.02137430
O       17.89890000       6.24452000       0.63586100      -0.00883009       0.02716860       0.01687700
H       18.32610000       8.05189000       0.93311800       0.00283534      -0.03255620       0.00692072
H       16.65700000       5.73765000       1.91916000       0.01189050       0.01218900      -0.00761942
O        4.01719000      22.84850000       7.91261000       0.00084465      -0.00311592      -0.02344910
H        4.37346000      22.02410000       6.24260000      -0.01188510       0.00719683       0.04770580
H        5.51670000      22.40890000       8.93974000      -0.01181910      -0.01248280      -0.01092780
O        5.00031000      17.78000000      22.39500000       0.06652310      -0.02457310      -0.04492300
H        4.32126000      15.93960000      22.55330000      -0.00560238       0.00356871       0.01836830
H        6.79964000      16.87920000      21.27180000      -0.00938372       0.00360002       0.00592947
O        7.86850000       8.04333000      14.17020000      -0.01267160       0.05123270      -0.02300360
H        7.81590000       7.76404000      12.23780000      -0.00506468       0.00956310       0.04104720
H        7.41581000      10.00020000      14.50970000       0.00822978      -0.06178390      -0.01308740
O        1.51243000       4.41388000       8.52358000      -0.01715590       0.03564550      -0.01245540
H        2.77178000       5.72725000       8.25681000      -0.00297289       0.01231850       0.00829194
H        2.53002000       2.99899000       8.72454000       0.02069910      -0.04145590      -0.00009957
O        5.88735000      13.37880000       3.31765000       0.00883950      -0.01227710      -0.00890501
H        4.43661000      14.21200000       2.79089000      -0.02646790       0.01115360      -0.00188204
H        6.64947000      14.44900000       4.56061000       0.01557010       0.01966730       0.00000534
O       11.58150000       7.42399000       2.86096000      -0.00211591      -0.00841254      -0.00288426
H       10.14430000       6.90867000       1.86847000      -0.00451244       0.02051940       0.01174020
H       11.29410000       8.96893000       4.03784000       0.01309790      -0.01579300      -0.00952138
O       11.63540000      14.30720000      18.38790000      -0.06703970      -0.06303740      -0.03093030
H       13.07780000      14.86810000      19.05670000       0.08601680       0.03559580       0.02485000
H       12.12610000      12.57260000      17.81670000      -0.01371870       0.01527810       0.01993910
O       18.21830000      20.02400000       9.83660000      -0.01943310      -0.01541680      -0.04068490
H       19.84490000      20.67860000       9.91007000       0.02838080       0.01353670      -0.00086886
H       17.93710000      19.51810000       8.05293000       0.00426035       0.00747713       0.03313940
O       13.01300000       4.21344000       8.57353000      -0.03879030      -0.07025150       0.03634260
H       10.75970000       4.84890000       7.96174000      -0.05539530       0.03528690      -0.00121132
H       12.56270000       4.33854000      10.39890000       0.01527040      -0.00213493      -0.02214340
O       22.39350000       9.74132000       1.47936000       0.04267060      -0.01435370       0.04472890
H       23.60560000       8.26474000       1.85891000      -0.04015180       0.03998830      -0.01935620
H       22.68210000      10.94400000       4.12760000      -0.00313032       0.00488906      -0.03274200
O       18.13690000      14.61770000       7.64260000      -0.01628480       0.04878760      -0.02393870
H       19.24510000      15.53490000       6.55419000       0.00867296       0.00601426       0.00504219
H       18.92870000      14.35500000       9.19638000       0.01251770      -0.00315740       0.02881820
O        3.19053000      -0.03820100      16.70260000       0.05449590       0.03704900      -0.14770600
H        2.73372000      -0.60531400      18.13110000      -0.04950490      -0.06517720       0.14804200
H        3.74403000       1.61347000      16.99760000       0.00798203       0.04142810      -0.00600392
O        6.43778000      10.29560000      20.50990000       0.00520347      -0.00681020      -0.01078340
H        6.89259000       8.67527000      21.09790000       0.00456001      -0.01725060       0.00490571
H        6.08877000      11.22100000      21.96920000      -0.00683231       0.01580960       0.02735350
O        1.22760000      12.64420000      10.28860000       0.00288684       0.03976950      -0.00878043
H        0.42924800      11.82920000      11.76640000      -0.00687811      -0.00275680      -0.00687763
H        1.03780000      14.49350000      10.67280000       0.00740258      -0.03100710      -0.00634922
O        6.24579000      15.07040000      11.40540000       0.01518740       0.04915600       0.00174784
H        6.51545000      14.65210000      13.08730000       0.00821302      -0.00016973       0.03418050
H        5.76577000      13.54330000      10.79070000      -0.02225360      -0.05395880      -0.03493630
O       13.26320000      16.92600000       7.33223000      -0.01938750      -0.06592840      -0.02324430
H       14.79770000      16.04820000       7.55411000       0.02296500       0.00332016       0.00915041
H       13.37610000      18.65760000       7.33438000       0.00009777       0.05646840       0.01921760
O       19.39650000      18.25010000      15.42300000      -0.08964280      -0.06576970      -0.00571736
H       20.56590000      19.40510000      15.25870000       0.08751510       0.08451980      -0.03029960
H       19.61010000      17.81900000      17.12880000       0.00861569      -0.01910110       0.03578180
O        7.56173000      18.21090000       4.72550000      -0.05333650      -0.02702800      -0.03614130
H        6.71726000      18.47850000       0.14777900      -0.03330060      -0.01547360       0.05810770
H        8.89681000      19.30800000       4.88697000       0.04024570       0.01789090       0.00436986
O        6.98474000      19.45060000       8.90487000      -0.00361320       0.01487330      -0.00242483
H        6.86628000      18.49010000       7.12109000       0.01573530       0.01062940      -0.00357689
H        6.35624000      18.36600000      10.11960000      -0.00178798      -0.02765730       0.02965840
O        0.03750800      12.51090000       5.52375000      -0.01173650      -0.05455430      -0.02213150
H        0.24728300      14.13050000       4.87537000       0.00258898       0.03832820      -0.01315650
H        0.58976100      12.32100000       7.24169000       0.00973079      -0.00425333       0.03829920
O       13.16730000      14.16990000      13.63750000      -0.03443080       0.01487350       0.03491620
H       13.51130000      15.86780000      13.05880000      -0.00517058       0.00833497      -0.00796571
H       12.03430000      14.40180000      15.19740000       0.02940620       0.00423875      -0.03811140
O       15.09850000      18.07840000      17.77130000      -0.05020040       0.01644290      -0.00253128
H       14.85030000      18.60510000      15.97700000      -0.00947061      -0.00325539       0.00189605
H       16.79950000      18.46020000      17.88880000       0.03301460       0.00214831       0.01409410
O        0.01677200      20.92720000      13.66600000       0.01713150       0.03513070      -0.00142922
H       -1.04343000      22.37940000      13.96250000       0.00522674       0.00349966      -0.00229406
H        1.73217000      21.60070000      14.19400000      -0.03392130      -0.01328010      -0.00211502
O       11.67260000      11.64030000       5.76230000      -0.04431640      -0.01975010      -0.00313974
H       12.86920000       0.33246500      -2.62071000       0.02915190      -0.04308390       0.04901080
H       12.26640000      12.87650000       6.95447000      -0.00854719      -0.00749303      -0.00511691
O       17.14250000      10.56030000       6.87281000      -0.03775890      -0.22670000       0.03509860
H       18.25950000       9.15542000       6.31813000      -0.01885130       0.03932270       0.00438185
H       17.53690000      12.06700000       6.45707000       0.05071530       0.13179600      -0.04467630
O        2.19112000      21.34120000      21.31110000       0.03022230      -0.01745880       0.07762010
H        0.51215000      21.47410000      22.05440000       0.01565150       0.00349563      -0.00030847
H        3.42644000      20.61830000      22.84500000      -0.06477700       0.03115790      -0.06719290
O       13.76820000       9.82347000      12.26570000      -0.00612285      -0.02186130      -0.05324010
H       13.54400000       9.13025000      10.52080000       0.01061770       0.00852658       0.02854360
H       12.77220000      11.36260000      12.20750000       0.00698140       0.00712097      -0.00039899
O        6.62545000       1.12436000       4.14555000       0.05777130      -0.03212470      -0.00046299
H        8.38095000       0.84979000       3.45550000       0.00880156      -0.02054970       0.01131700
H        5.93107000       2.18889000       2.98112000      -0.03823030       0.05257410      -0.04437540