192
Lattice="24.37236 0.0 0.0 -1e-06 24.37236 0.0 -1e-06 -1e-06 24.37236" Properties=species:S:1:pos:R:3:REF_forces:R:3 REF_energy=-1103.03055 pbc="T T T"
O        7.38732000       7.13187000       4.05592000      -0.01533920      -0.04256630      -0.00845262
H        7.19359000       6.38463000       2.34548000       0.00134359       0.01419950       0.02948030
H        6.35063000       5.97647000       5.17665000       0.01597590       0.01400210      -0.02197240
O       17.63160000       6.04431000      19.62010000      -0.04048240      -0.00662396       0.03328040
H       17.19340000       4.65125000      20.85060000       0.02961120       0.00471950      -0.01310570
H       16.16310000       7.10739000      20.24060000       0.01686480       0.00469411      -0.01555530
O        4.19561000      19.03090000       3.82324000      -0.04244390      -0.02631750      -0.02963600
H        3.02192000      18.02040000       2.52258000       0.04206660       0.05535520       0.04548340
H        3.60081000      20.76360000       4.17580000      -0.00290292      -0.02186590      -0.02152790
O       17.95720000      21.14090000       7.27076000      -0.00309239      -0.05232720       0.00177090
H       17.02130000      19.40690000       7.10924000       0.01195110       0.06057430       0.00756335
H       16.88750000      22.63730000       7.38714000      -0.01061880      -0.01208580      -0.00398878
O        2.63939000       0.21765600       3.24497000       0.02765180       0.08694400      -0.01255610
H        3.60001000       1.34639000       4.50691000      -0.02352240      -0.03509610      -0.01161460
H        2.50394000       1.73979000       1.94665000      -0.00172200      -0.05367660       0.02130050
O       20.54760000       9.80664000       7.09812000       0.00067031       0.02107560       0.03055310
H       19.41610000       8.56073000       7.81647000       0.00637577       0.00034880      -0.00284197
H       20.44880000      11.12470000       8.42031000      -0.00372489      -0.01465600      -0.02504870
O       14.31860000       0.69243300       7.41056000      -0.01206480       0.02962440      -0.01175270
H       14.76610000       2.52715000       6.72525000      -0.02025890      -0.06485490       0.00623459
H       12.70580000      -0.06828100       6.73838000       0.03396420       0.03506420       0.00229541
O       13.04110000       0.62736400      13.12570000      -0.02641920      -0.03903840      -0.00904204
H       14.29390000       1.62007000      13.83680000       0.03635320       0.03593990       0.00792467
H       12.97920000       0.80503000      11.31750000       0.00283092       0.00817700      -0.00364823
O        2.81955000      13.31470000       9.34867000       0.02427080      -0.02054500       0.04461700
H        2.96765000      12.79260000      11.38680000      -0.02821280       0.04021060      -0.08586040
H        1.32775000      14.23490000       8.57318000       0.01031620      -0.01231460       0.04495430
O       12.11190000      17.08500000      17.70610000       0.02994960       0.01092220      -0.01199250
H       13.66660000      18.06510000      17.13650000      -0.05427110      -0.00945903       0.00865520
H       10.49130000      17.92540000      17.41690000       0.02560200       0.00573415       0.00248028
O        3.52965000      17.17720000      22.75950000      -0.02659700       0.03035720      -0.01533740
H        2.72551000      17.08910000      21.12130000      -0.00200521       0.02244530      -0.00030899
H        3.80540000      15.45880000      22.74230000       0.02846500      -0.05327180       0.01756810
O       21.90840000       1.03871000      14.25480000      -0.01927930      -0.04960350      -0.03351880
H       22.49840000       0.64798200      15.97440000      -0.00629157       0.00453208      -0.01277910
H       21.45310000      23.70160000      13.41810000       0.01544610       0.05153150       0.03449240
O       23.39850000      16.12990000       7.91826000       0.01238220       0.00250133      -0.02794420
H       -0.44992600      17.80690000       8.40443000       0.00331658       0.01472790       0.01557940
H       24.06330000      16.24650000       6.16963000      -0.02586600      -0.01286470       0.00440408
O        4.52766000       7.24190000      21.13760000       0.03183590      -0.02721610      -0.04697940
H        5.96567000       6.31424000      20.24570000      -0.00466145       0.00857122       0.04136320
H        3.91156000       7.81463000      19.48290000      -0.02481610       0.01358150       0.01367350
O       14.55610000      18.13670000       0.41462200      -0.00142382       0.00582265      -0.04089750
H       14.34550000      17.84060000       2.15239000      -0.01086980      -0.00890082       0.01700930
H       13.18240000      17.22310000      23.79110000       0.01974050       0.00687671       0.02272560
O        6.65221000      13.47890000      20.28880000      -0.01210450      -0.03575870       0.00227888
H        6.31983000      14.29630000      18.68920000       0.00569655       0.02303590      -0.00108680
H        5.63235000      11.99430000      19.92040000       0.01061160       0.00146675       0.01665710
O        9.78374000      15.81160000       4.53965000      -0.01609530      -0.04486670       0.00840361
H        8.59880000      14.38070000       5.18405000       0.03048660       0.02976380      -0.01866580
H        9.41055000      17.20440000       5.59434000      -0.01185550       0.01077240       0.00598831
O        1.38850000       3.77470000      23.68260000      -0.00366090      -0.00246694      -0.00590745
H        0.00021400       4.72326000       0.20766000       0.03708420       0.00113132      -0.02852510
H        2.49795000       4.54404000      22.27080000      -0.03508690       0.00355733       0.04417160
O       14.84630000      11.43980000       6.42148000      -0.05305260      -0.03724930      -0.00533839
H       13.63230000      10.80730000       5.10351000       0.02784220       0.02639120      -0.01047440
H       13.99360000      10.19330000       7.53004000       0.02831770       0.02339350       0.01789610
O       20.12160000      21.56010000      18.08720000      -0.02175560       0.06187370      -0.03142760
H       17.71160000      22.70380000      15.47240000       0.01533070      -0.04455060       0.04598790
H       19.98280000      19.81030000      18.04630000      -0.00862069      -0.03550780      -0.00849273
O       17.06760000       4.52709000      14.77380000       0.02764190      -0.02671480      -0.08337070
H       16.83330000       4.74505000      16.52510000       0.02434100       0.00412146       0.03062930
H       18.79540000       3.90038000      14.07220000      -0.05308020       0.01691420       0.05161000
O       12.95940000       7.98468000       2.92404000       0.00175073      -0.01444330       0.04809280
H       11.27260000       7.56084000       3.63218000       0.02048720       0.00274024      -0.01158880
H       14.22050000       7.25631000       4.19979000      -0.03015240       0.00845028      -0.04446790
O        4.92413000      22.75060000      22.01030000       0.01521020      -0.01385550       0.01687340
H        3.68107000      21.44980000      21.81670000      -0.00737260       0.00148534      -0.00546175
H        5.81473000      22.01660000      23.46360000      -0.00451273       0.01230900      -0.01403880
O        1.60436000       9.02653000      17.32630000      -0.01787930       0.01452340       0.02256380
H        1.33652000       7.92904000      15.85400000      -0.01493730      -0.00709626       0.01375500
H        0.16597000       8.99716000      18.69810000       0.02485820      -0.00839035      -0.04018680
O        4.48905000       3.58648000       6.94954000       0.03548960      -0.00572097       0.00692232
H        3.04202000       4.45997000       7.62074000       0.00713201       0.00393515       0.00845320
H        5.92338000       3.29865000       8.21627000      -0.03664270       0.00565660      -0.01414260
O        0.59350200      20.97750000       9.17061000      -0.10648900       0.03653840       0.04493500
H       22.97500000      21.23560000      10.55510000       0.08711420      -0.02026480      -0.04549600
H       -0.16242000      22.24630000       7.95411000       0.01907320      -0.01998550       0.00482341
O        1.24535000      13.71600000      14.65600000       0.00242475       0.02615400      -0.01579540
H        1.53057000      12.07180000      15.50220000      -0.03480270       0.01539570       0.00626642
H       -0.31780200      14.97960000      14.80550000       0.02275750      -0.06870520       0.01595470
O       23.08610000      15.32820000       2.63665000       0.00154422      -0.00650263       0.02876000
H       22.04340000      16.50390000       1.67697000       0.01853780      -0.00787990      -0.01421070
H        0.34384100      14.79060000       2.02790000      -0.01574270       0.01024840      -0.01823550
O       23.28910000       7.88644000       2.26332000       0.00645734       0.01966330      -0.02822530
H        0.16610600       8.97448000       1.25330000      -0.02197940      -0.01258400       0.03378180
H       21.76060000       8.85494000       2.67632000       0.02327250      -0.00510520      -0.00489991
O        4.78593000      16.14290000      16.76200000       0.04034880       0.03009350      -0.04367270
H        6.03322000      16.58620000      15.26040000      -0.04967400      -0.02709210       0.04566480
H        3.35318000      15.02960000      16.20210000       0.01418360       0.01453480      -0.01832610
O       19.82260000      13.91250000      20.41220000      -0.01577430       0.00153339      -0.01035950
H       19.48000000      15.55240000      21.36470000       0.01817270      -0.03057570      -0.00096628
H       20.25180000      12.34640000      21.30010000       0.00387940       0.01677080       0.00548047
O       10.43150000       0.94437900       2.71997000      -0.02840940       0.00380531      -0.02705500
H        8.90005000       1.08687000       1.63624000       0.01960780      -0.00314423       0.02663690
H       11.62440000       0.66510800       1.36986000       0.00657078      -0.00086964       0.00294588
O       18.65830000      14.49810000      10.68560000       0.00631174       0.01130510      -0.02762900
H       20.21110000      14.64040000       9.71548000       0.00047859      -0.00053969       0.00320330
H       17.49220000      15.29740000       9.47057000       0.00110306      -0.00973234       0.02338010
O       11.04750000       0.64374400      17.93250000      -0.00033825       0.01246900       0.00019913
H        9.47819000      24.04740000      18.04450000       0.01158680      -0.00148694      -0.00511777
H       11.25780000       0.67712700      16.09620000       0.00064932       0.00127043       0.01372990
O       20.47680000      19.65360000      12.51560000       0.01726730      -0.02679450      -0.02595990
H       19.89100000      19.81050000      10.80800000      -0.01787550       0.01649330      -0.01492750
H       21.10240000      17.90600000      12.20920000      -0.00725233       0.01972690       0.02770680
O       15.24430000      20.64260000      14.59720000       0.04665100       0.05319600      -0.05159360
H       14.30450000      22.21400000      13.77410000       0.01076290      -0.03285640       0.01822110
H       16.66380000      20.23180000      13.32180000      -0.03824110      -0.00049206       0.03323350
O       17.36440000       2.13005000      23.27220000      -0.05605640      -0.06956790      -0.02383380
H       18.59890000       0.71111600      22.95680000      -0.01416820       0.02847810       0.00338782
H       15.48470000       1.05990000      22.80420000       0.06973160       0.03850090       0.02650180
O       21.96450000      23.18710000      22.84890000       0.04949290       0.04649540       0.09162980
H       22.36730000      23.07740000      21.10350000       0.01264920       0.00244647      -0.01532480
H       23.62110000       0.02462900      24.18260000      -0.06735780      -0.05189210      -0.07730110
O        3.25135000      10.63840000       0.49785800       0.06203610      -0.04158310      -0.01967120
H        4.38410000      11.21080000       1.92914000      -0.01829290      -0.01853900      -0.02767340
H        4.40895000       9.20476000      -0.69139700      -0.04903120       0.06051650       0.04439270
O        8.46703000      10.03980000      11.12660000       0.05049230      -0.11352700      -0.00496402
H       10.27160000       9.42743000      10.54700000      -0.04771000       0.03642130       0.01647550
H        8.04886000       8.10337000      11.73130000      -0.00252573       0.08127760      -0.00655591
O        0.72570400       2.18323000      17.76700000      -0.02062350      -0.01498830       0.08857880
H        1.36349000       0.37123700      17.87990000      -0.01053960       0.03732730       0.00620156
H       -0.00550600       2.66641000      19.67600000       0.03525670      -0.02759600      -0.08057250
O       21.94720000       8.73140000      20.87950000      -0.03095450      -0.02778160      -0.00331821
H       22.42250000       7.91291000      22.54380000      -0.02190650       0.01319910      -0.03891880
H       20.27850000       7.83207000      20.00930000       0.04901390       0.01178410       0.04208630
O        9.26493000       5.42898000      19.82630000       0.01910530      -0.00518873       0.01281870
H       10.57110000       6.24983000      20.89770000      -0.01635110      -0.00961852      -0.01988920
H        9.82113000       3.66717000      19.49450000      -0.00096608       0.01857000      -0.00168497
O       12.97880000      23.27790000      22.76730000       0.01941810      -0.00065273       0.02837040
H       13.75090000      21.84320000      23.83000000      -0.01830260       0.02179310      -0.05287770
H       12.91590000      23.38860000      20.90930000       0.00286552      -0.02202340       0.01571000
O        1.52645000      21.03270000      17.82540000      -0.00888685      -0.01990890      -0.02985520
H        0.40630600      20.37540000      16.50120000      -0.00765905       0.01629610       0.02100120
H        2.95032000      20.04070000      17.28130000       0.01526200       0.00023497       0.00964056
O       14.47580000      16.99240000       7.89052000       0.00184472       0.00025350      -0.02056800
H       13.06690000      18.20000000       7.58688000       0.02073740      -0.03708760      -0.00087556
H       14.47210000      15.42790000       6.79301000      -0.02096870       0.02898020       0.01880160
O        6.37468000      18.29080000       8.55661000      -0.01109150      -0.05842100       0.01782100
H        4.91921000      18.74050000       7.57306000       0.00093275       0.00419931      -0.00962355
H        5.90812000      16.47850000       9.04388000       0.01728890       0.04092570      -0.00986150
O        1.60924000       5.35887000      13.57630000      -0.07189780      -0.03536870      -0.03840310
H        1.00942000       5.94194000      11.86920000       0.02138660       0.00441844       0.02449200
H        0.24288000       3.92190000      13.77820000       0.04839960       0.03883470       0.01006560
O       19.92010000      17.87900000      23.56230000      -0.09288910      -0.02343170       0.02648820
H       20.08730000      19.65910000      23.51660000       0.01276200       0.02399410      -0.01008450
H       17.86040000      17.76210000      24.08050000       0.06731170       0.00360300      -0.01584780
O       22.26940000      23.45350000       5.26596000       0.00644568      -0.01865970      -0.02286040
H       23.37290000      23.00110000       3.85690000       0.00553076       0.01762770       0.01468830
H       21.01090000      22.15560000       5.02032000      -0.01226120       0.00576614       0.01525710
O        6.56734000      11.81910000       5.26875000      -0.07217860       0.09477150       0.02308160
H        4.91787000      12.92860000       6.28770000       0.07377270      -0.06806710      -0.02819160
H        6.70968000      10.09940000       5.72433000      -0.00728598      -0.01414420       0.00896087
O        7.93683000       2.08471000      10.93500000      -0.00505239       0.00844541      -0.01116630
H        7.52969000       3.31407000      12.24250000      -0.00533690      -0.01466350      -0.00083754
H        6.78337000       0.65552800      10.97950000       0.00515515       0.00598450       0.01342390
O        1.23827000       8.08386000       8.66527000      -0.04167840       0.03136450      -0.00380279
H        2.64912000       9.23898000       8.93479000      -0.01594330      -0.00215341      -0.00499142
H       -0.36095800       9.22770000       8.24438000       0.05289010      -0.04180380       0.00790149
O        6.67760000       6.41583000      14.90410000       0.00304438       0.03790520       0.06689200
H        4.88113000       7.07623000      15.41940000       0.06644730      -0.02579400      -0.01623750
H        8.02448000       6.94585000      16.38190000      -0.05777860      -0.02229240      -0.05430450
O        9.07034000      15.19390000      12.46060000       0.01841050       0.05741240       0.01796520
H        8.88649000      13.41070000      12.28260000       0.01694150      -0.01459670       0.00872937
H       10.59410000      15.95290000      13.36330000      -0.03733280      -0.04318860      -0.02225630
O       15.05540000      12.29980000      17.63620000       0.11078500      -0.02672940       0.04633270
H       17.18560000      12.76080000      18.75480000      -0.08310130      -0.01193340      -0.04318190
H       14.38770000      13.90800000      17.65530000      -0.02597840       0.04358240       0.00084135
O       14.18370000       8.69812000      11.52000000      -0.01244730       0.00082448      -0.02663120
H       14.78550000      10.18080000      12.42680000      -0.00374439      -0.02972080       0.01169790
H       14.02960000       7.02532000      12.27090000       0.01633330       0.02887360       0.01485460
O       13.73470000       8.94822000      21.21780000      -0.00243678      -0.02605630      -0.01633430
H       13.93900000      10.41400000      20.17370000      -0.00062675       0.01365220      -0.02003140
H       13.70600000       9.56208000      22.86080000      -0.00189137       0.00785276       0.03861340
O        7.91786000      21.64170000      16.81250000      -0.00442477      -0.02246870      -0.01312040
H        7.41640000      20.98010000      15.08410000      -0.01399620       0.02517370       0.04336020
H        6.65019000      21.70710000      18.16040000       0.00085084      -0.00968581      -0.02303770
O       16.85610000       4.56007000       4.21114000       0.09958250      -0.01447990       0.00237339
H       18.24250000       5.52583000       5.37655000      -0.05540520      -0.04718860      -0.04787800
H       17.99680000       3.25778000       3.00632000      -0.05274020       0.05843560       0.04665830
O       11.19060000      14.60210000      23.72700000      -0.04141280      -0.02758920       0.02448610
H       10.82810000      14.71180000       1.17718000       0.01184230       0.00870665      -0.00719505
H        9.56746000      13.71160000      23.33810000       0.02781840       0.02006750      -0.01853110
O        5.29275000      21.31880000      12.29560000       0.01785270      -0.02871950       0.00285040
H        5.76844000      19.63190000      11.51850000      -0.00746608       0.03580800      -0.00331632
H        3.50600000      21.40390000      12.08480000      -0.00732985       0.00168558      -0.00397733
O       19.73080000       4.91003000       8.69305000       0.05110590      -0.01222490      -0.03500170
H       21.41240000       4.34391000       7.91657000      -0.04480610       0.01541970       0.02093080
H       19.79590000       4.27794000      10.35200000      -0.00138203      -0.00596129       0.01726590
O       20.86360000      14.76510000      15.66290000      -0.00677253      -0.00585605      -0.01420070
H       20.70390000      14.12460000      17.65260000      -0.01085600       0.01002450      -0.06612300
H       20.01280000      14.14270000      13.94360000       0.01406650       0.00909427       0.07940570
192
Lattice="22.4922 0.0 0.0 -1e-06 22.4922 0.0 -1e-06 -1e-06 22.4922" Properties=species:S:1:pos:R:3:REF_forces:R:3 REF_energy=-1101.98208 pbc="T T T"
O       10.85070000      17.98420000       0.99447200      -0.01287310       0.04367600      -0.04981900
H       11.26420000      18.41180000      -0.75078600       0.01488800      -0.01584500       0.00971050
H       11.55590000      16.50750000       1.66738000       0.02581880      -0.02890430       0.01449990
O       21.00580000       3.60178000       7.27777000      -0.01674750       0.00145996       0.02821370
H       22.80500000       4.05516000       7.48973000       0.00771826       0.00406853       0.00675990
H       20.92680000       1.86170000       6.80847000       0.00519739      -0.01268610      -0.01422550
O       17.34180000      -0.10399000      19.38120000      -0.01476060      -0.03428340       0.00737594
H       16.37160000       0.86054800      20.50560000      -0.01811950       0.00814554       0.02666060
H       17.44370000       1.11361000      18.08020000       0.01330150       0.01800270      -0.03824680
O       12.60730000      16.37100000       8.80096000       0.00746612      -0.04576740       0.06817440
H       12.66160000      14.64610000       9.83384000       0.00031483       0.05767800      -0.03984360
H       13.05670000      17.52890000      10.19180000      -0.01201210      -0.01441240      -0.01922430
O       17.37040000      11.69620000      13.76440000      -0.01152130       0.01165880       0.00723188
H       17.33850000      13.76380000      13.76720000      -0.01471200      -0.05519380       0.01611740
H       15.96120000      10.80750000      14.67370000       0.02167010       0.01741560      -0.01422570
O        3.53653000      14.37380000       8.70985000      -0.04123550       0.08259460       0.03792930
H        2.65334000      15.35400000       7.45314000       0.00398476       0.00084364       0.00638031
H        4.59275000      13.29780000       7.95141000       0.05011440      -0.05871910      -0.04667910
O       14.26780000      20.13970000      14.83770000      -0.03979570       0.08449130      -0.02224770
H       13.86880000      22.09170000      14.95090000       0.01774490      -0.06882570      -0.00845750
H       13.04130000      19.55510000      13.52210000       0.01565090       0.01009170       0.02009500
O        0.75054700      11.58960000      19.27790000       0.00155809       0.01825890       0.01506040
H       -1.03325000      11.78510000      19.10400000      -0.00037308      -0.00500489      -0.00926338
H        1.16515000      12.43730000      20.94170000      -0.00486332      -0.02120400      -0.01860060
O       13.61140000      22.10090000       2.74679000       0.02388170      -0.00075601      -0.02434250
H       13.25030000      20.27270000       2.53981000       0.00235831       0.02781150      -0.01654710
H       14.74950000      22.79990000       1.33223000      -0.03178270      -0.03268690       0.04227970
O       10.57240000      13.00030000      13.60650000      -0.00942393      -0.00137372       0.01190080
H       10.76150000      12.58300000      15.42610000      -0.00961149       0.00269530      -0.03437300
H        8.73723000      13.15160000      13.09810000       0.03805060       0.00294699       0.02198830
O        2.39703000      12.23290000       0.93808400      -0.04442270      -0.08012750      -0.02053060
H        1.27654000      11.27000000       2.04257000       0.00716585       0.01644620       0.00313601
H        3.10668000      13.56920000       1.73744000       0.02192480       0.05013970       0.03777640
O        9.47188000      18.39470000      17.46820000       0.06071890      -0.02610480      -0.01450300
H        9.75234000      19.03410000      15.78320000      -0.00946309      -0.00127191      -0.00707125
H        7.97884000      18.98170000      18.06280000      -0.06162460       0.02714860       0.02234850
O       18.17960000       2.29526000      15.48320000       0.01429390       0.05299550      -0.03756810
H       19.06910000       0.81519700      14.98570000       0.01604030      -0.01365850       0.00078165
H       19.22170000       3.67671000      14.61190000      -0.03279130      -0.03651190       0.04015020
O        6.94041000      11.33410000       6.50003000       0.01052630      -0.00349085      -0.01342060
H        8.46860000      10.91970000       7.52382000       0.00142926       0.00207777       0.00668222
H        6.08913000       9.72349000       6.22365000      -0.00478730       0.00743238      -0.00131196
O        9.51980000      19.60440000      12.37460000       0.06273240       0.02322100       0.03113930
H        9.38218000      21.32090000      11.79020000      -0.01899090      -0.01435140      -0.00631798
H        8.42520000      18.29220000      11.88270000      -0.02363960      -0.01656860      -0.01582400
O       18.40960000      14.21470000       2.62826000       0.00609045       0.02504200      -0.00804209
H       19.57220000      15.35740000       3.54124000      -0.01891520      -0.00932524      -0.01753550
H       17.99060000      15.07130000       0.99857400       0.00830763      -0.01179410       0.03947710
O        7.14334000      19.15860000       3.18180000      -0.01384520       0.04084660       0.00624216
H        7.22884000      20.64050000       4.40982000       0.00988158      -0.03570220      -0.02500120
H        8.44510000      19.30880000       1.81103000      -0.01191820      -0.00527383       0.03363650
O       14.42240000      10.18350000       4.90607000      -0.08061240      -0.06584500      -0.06534380
H       13.12880000       8.65807000       5.76300000       0.05412180       0.07525450      -0.04260740
H       13.60830000      10.43090000       2.45500000       0.03386120      -0.01024050       0.11095300
O        6.56493000       2.61814000      19.93090000       0.00093514      -0.00444578       0.00723557
H        6.13988000       0.89732900      20.53030000      -0.00095669       0.01520180      -0.00890425
H        5.48909000       3.86349000      20.79980000       0.01290220      -0.00998617       0.00276395
O       15.10470000       7.08005000      16.05740000       0.02317760      -0.00800076      -0.00236145
H       11.69400000       6.42383000      21.89840000       0.02355560      -0.00015773       0.03601000
H       15.22730000       5.27520000      15.70210000      -0.00213097       0.01888620       0.00771332
O        8.91450000       3.91544000      13.55190000      -0.00499966      -0.06174520       0.07082640
H        8.65896000       5.89594000      14.09560000      -0.00976593       0.00241254       0.00817102
H        8.71449000       2.71009000      15.15540000       0.00429391       0.05274140      -0.06013890
O       15.97900000      15.94920000      14.80170000       0.03513880       0.02910620      -0.01393450
H       14.93470000      15.08720000      15.98020000      -0.01581850       0.00866540       0.00861561
H       16.38780000      17.76450000      15.21150000      -0.02127090      -0.03916950      -0.00454205
O        3.93967000       6.89167000      13.62320000      -0.02683630       0.02705060       0.03975960
H        5.32134000       8.15595000      14.01800000      -0.00236769      -0.02292050      -0.00799770
H        2.46372000       7.55525000      14.66890000       0.02381150      -0.00184783      -0.03652020
O       15.60710000       3.38258000       0.08720100       0.00429609       0.01488620       0.01391770
H       17.25070000       4.10016000       0.49447300      -0.01627200      -0.00097418      -0.00296380
H       14.40960000       4.07746000       1.29650000       0.01719480      -0.00821782      -0.00842226
O       15.99710000      19.46180000       6.78768000      -0.02116790       0.08089880      -0.02582860
H       14.57010000      20.06660000       5.69607000       0.02786090      -0.00755712       0.02136290
H       15.70810000      17.80560000       7.20484000      -0.02680630      -0.06077730       0.01380540
O       12.55390000      14.87990000       4.11286000      -0.08192930       0.00196180      -0.01218710
H        9.16389000      14.31640000       5.12444000       0.06885680       0.00275564      -0.01272980
H       13.34810000      13.54620000       5.01155000       0.00681363      -0.01800310       0.01346820
O        8.16374000      13.81510000      20.69530000       0.02007280      -0.00354623       0.01066940
H        7.15015000      14.25380000      19.16010000       0.01144330       0.00147491      -0.01146940
H        7.97636000      15.22470000      21.79170000      -0.02261040       0.01517460       0.00913305
O        3.07132000       7.26373000       5.42267000      -0.00657002       0.04514020      -0.01658180
H        3.49462000       6.07026000       6.72928000       0.00437271      -0.00975773      -0.00501763
H        2.27474000       8.59305000       6.54323000       0.00303810       0.00212521      -0.00730591
O        2.28714000      18.81430000       5.88967000      -0.03304160       0.00516821      -0.01730510
H        2.68857000      18.06930000       4.27559000       0.00336801       0.00762793       0.00440924
H        0.39520600      19.22380000       5.59305000       0.03187850      -0.00875813      -0.00305384
O       11.65060000       4.83124000      10.06070000       0.04829410       0.00076798       0.00181833
H       13.39980000       4.52035000       9.49747000      -0.02135550       0.00554402       0.00108313
H       11.75070000       3.89942000      11.69570000      -0.02933400       0.01842250      -0.00994791